<?xml version="1.0"?>

<!--
CSMP_Simulation
-->

<VTKFile type="UnstructuredGrid" version="1.0" byte_order="LittleEndian">
	<UnstructuredGrid>
		<Piece NumberOfPoints="2922" NumberOfCells="5619">
			<Points>
				<DataArray type="Float64" Name="Position" NumberOfComponents="3" format="ascii">
					1.062348e+04	-6.219427e+03	0.000000e+00	1.328123e+04	-3.388001e+03	0.000000e+00	6.533000e+03	-2.871000e+03	0.000000e+00	8.993999e+03	3.450022e+02	0.000000e+00
					6.434000e+03	-6.251000e+03	0.000000e+00	6.415000e+03	-1.312000e+03	0.000000e+00	8.891000e+03	-1.610000e+02	0.000000e+00	1.593372e+04	-6.223812e+03	0.000000e+00
					1.243124e+04	-5.182061e+03	0.000000e+00	1.180818e+04	-6.661451e+03	0.000000e+00	1.199040e+04	-6.569837e+03	0.000000e+00	1.186573e+04	-6.450233e+03	0.000000e+00
					1.224666e+04	-6.222517e+03	0.000000e+00	1.208180e+04	-6.360720e+03	0.000000e+00	1.135568e+04	-6.216921e+03	0.000000e+00	1.177466e+04	-5.800292e+03	0.000000e+00
					1.484109e+03	2.369937e+02	0.000000e+00	1.048845e+04	-4.576829e+03	0.000000e+00	5.088007e+03	2.164612e+02	0.000000e+00	1.616065e+04	6.885872e+02	0.000000e+00
					5.856588e+03	2.844799e+02	0.000000e+00	5.964146e+03	2.322470e+02	0.000000e+00	1.285384e+04	-8.473227e+03	0.000000e+00	6.554646e+03	2.976259e+02	0.000000e+00
					6.220259e+03	3.810972e+02	0.000000e+00	2.455667e+03	2.604214e+02	0.000000e+00	1.185441e+04	-8.594387e+03	0.000000e+00	8.953729e+02	2.424411e+02	0.000000e+00
					1.642061e+04	5.389531e+02	0.000000e+00	9.022812e+03	5.486281e+02	0.000000e+00	1.072547e+04	-4.265213e+03	0.000000e+00	1.596156e+04	-4.568462e+03	0.000000e+00
					1.049681e+04	-6.339904e+03	0.000000e+00	1.229884e+04	9.679014e+02	0.000000e+00	1.346081e+04	9.303555e+02	0.000000e+00	7.674576e+03	2.576962e+02	0.000000e+00
					8.121128e+03	2.577928e+02	0.000000e+00	8.390419e+03	2.530714e+02	0.000000e+00	1.759058e+04	3.107264e+02	0.000000e+00	1.283469e+04	-3.190105e+03	0.000000e+00
					1.310544e+04	-3.163050e+03	0.000000e+00	6.218396e+03	2.847346e+02	0.000000e+00	1.964998e+04	3.306567e+02	0.000000e+00	1.089832e+04	6.517557e+02	0.000000e+00
					9.482042e+03	5.002750e+02	0.000000e+00	1.461891e+04	-3.601876e+03	0.000000e+00	1.694475e+04	2.822433e+02	0.000000e+00	1.223129e+04	-8.439639e+03	0.000000e+00
					7.092101e+03	3.133630e+02	0.000000e+00	7.447673e+03	2.954910e+02	0.000000e+00	5.479449e+03	3.927924e+02	0.000000e+00	1.430834e+04	-8.440884e+03	0.000000e+00
					1.346187e+04	-3.101654e+03	0.000000e+00	1.466219e+04	5.912805e+02	0.000000e+00	1.431424e+04	6.995984e+02	0.000000e+00	1.198158e+04	-3.600157e+03	0.000000e+00
					1.519729e+04	6.008027e+02	0.000000e+00	1.732254e+04	2.914492e+02	0.000000e+00	1.847268e+04	5.552377e+02	0.000000e+00	1.373014e+04	-3.092539e+03	0.000000e+00
					1.598609e+04	-4.803680e+03	0.000000e+00	1.811668e+03	2.957238e+02	0.000000e+00	2.068111e+03	3.301681e+02	0.000000e+00	3.593477e+02	6.241832e-01	0.000000e+00
					1.315684e+04	9.290093e+02	0.000000e+00	9.757773e+03	6.136685e+02	0.000000e+00	1.013994e+04	6.394650e+02	0.000000e+00	9.949611e+03	7.276424e+02	0.000000e+00
					1.479179e+04	-3.977888e+03	0.000000e+00	1.474764e+04	-3.691732e+03	0.000000e+00	1.224233e+04	-3.775151e+03	0.000000e+00	1.235721e+04	-3.992361e+03	0.000000e+00
					1.239488e+04	-3.732875e+03	0.000000e+00	1.247959e+04	-3.889221e+03	0.000000e+00	1.489970e+04	-6.402044e+03	0.000000e+00	1.471371e+04	-6.063480e+03	0.000000e+00
					1.503558e+04	-6.243497e+03	0.000000e+00	1.463383e+04	-6.231790e+03	0.000000e+00	1.359516e+04	-6.370837e+03	0.000000e+00	1.336635e+04	-6.229341e+03	0.000000e+00
					1.486979e+04	-7.470250e+03	0.000000e+00	1.455711e+04	-7.489929e+03	0.000000e+00	1.120299e+04	-4.942350e+03	0.000000e+00	1.218357e+04	-7.531530e+03	0.000000e+00
					1.251446e+04	-7.480192e+03	0.000000e+00	1.240108e+04	-7.647510e+03	0.000000e+00	1.239322e+04	-7.293615e+03	0.000000e+00	1.368325e+04	-7.242141e+03	0.000000e+00
					1.217897e+04	-5.028812e+03	0.000000e+00	1.378964e+04	8.854108e+02	0.000000e+00	1.351945e+04	-3.856343e+03	0.000000e+00	1.333151e+04	-3.674419e+03	0.000000e+00
					1.350782e+04	-3.520236e+03	0.000000e+00	1.479244e+04	-4.909493e+03	0.000000e+00	1.380050e+04	-4.989557e+03	0.000000e+00	3.084262e+03	3.746820e+02	0.000000e+00
					3.006144e+03	2.572346e+02	0.000000e+00	1.252005e+03	2.691829e+02	0.000000e+00	1.642126e+03	2.829086e+02	0.000000e+00	8.235090e+03	4.169793e+02	0.000000e+00
					1.537108e+04	-5.728762e+03	0.000000e+00	1.550100e+04	-5.598568e+03	0.000000e+00	1.543359e+04	-5.440257e+03	0.000000e+00	1.516251e+04	-4.367050e+03	0.000000e+00
					1.542543e+04	-4.626431e+03	0.000000e+00	1.547978e+04	-4.435709e+03	0.000000e+00	1.421355e+04	-5.774419e+03	0.000000e+00	1.398427e+04	-5.607986e+03	0.000000e+00
					1.433859e+04	-5.644592e+03	0.000000e+00	1.422646e+04	-5.431404e+03	0.000000e+00	1.278519e+04	-5.034132e+03	0.000000e+00	1.297347e+04	-4.888217e+03	0.000000e+00
					1.308886e+04	-5.058455e+03	0.000000e+00	1.295570e+04	-5.179625e+03	0.000000e+00	1.371210e+04	-5.548806e+03	0.000000e+00	1.306586e+04	-5.417419e+03	0.000000e+00
					1.398961e+04	-5.001093e+03	0.000000e+00	1.423737e+04	-5.238687e+03	0.000000e+00	1.553662e+04	-5.035070e+03	0.000000e+00	1.541510e+04	-5.176839e+03	0.000000e+00
					1.433199e+04	-4.490070e+03	0.000000e+00	1.772795e+04	4.701005e+02	0.000000e+00	1.301714e+04	-3.340203e+03	0.000000e+00	1.291928e+04	-6.673458e+03	0.000000e+00
					1.305404e+04	-6.847013e+03	0.000000e+00	1.275393e+04	-6.763001e+03	0.000000e+00	1.299225e+04	-6.992535e+03	0.000000e+00	1.111766e+04	-6.671729e+03	0.000000e+00
					1.100675e+04	-6.816450e+03	0.000000e+00	1.117046e+04	-6.969377e+03	0.000000e+00	1.205000e+04	-8.078535e+03	0.000000e+00	1.184148e+04	-7.859306e+03	0.000000e+00
					1.196430e+04	-8.231484e+03	0.000000e+00	1.298170e+04	-7.885249e+03	0.000000e+00	1.295062e+04	-8.221395e+03	0.000000e+00	1.309178e+04	-8.017537e+03	0.000000e+00
					1.120470e+04	-5.453850e+03	0.000000e+00	1.115255e+04	-5.738876e+03	0.000000e+00	1.126426e+04	-5.604117e+03	0.000000e+00	1.184009e+04	-5.022972e+03	0.000000e+00
					1.172669e+04	-4.862486e+03	0.000000e+00	1.153323e+04	-4.959783e+03	0.000000e+00	1.175756e+04	-5.171477e+03	0.000000e+00	1.534244e+04	-6.934844e+03	0.000000e+00
					1.455437e+04	-8.098472e+03	0.000000e+00	1.476956e+04	-7.877258e+03	0.000000e+00	1.464624e+04	-8.340289e+03	0.000000e+00	1.404268e+04	-7.444684e+03	0.000000e+00
					1.421918e+04	-7.630822e+03	0.000000e+00	1.428388e+04	-7.472196e+03	0.000000e+00	1.526650e+04	-7.239097e+03	0.000000e+00	1.513630e+04	-7.368500e+03	0.000000e+00
					1.581589e+04	-5.652546e+03	0.000000e+00	1.296440e+04	-6.343040e+03	0.000000e+00	1.295470e+04	-6.059130e+03	0.000000e+00	1.303797e+04	-6.200013e+03	0.000000e+00
					1.273442e+04	-6.210589e+03	0.000000e+00	1.360396e+04	-6.962240e+03	0.000000e+00	1.362392e+04	-6.655270e+03	0.000000e+00	1.339020e+04	-6.812359e+03	0.000000e+00
					6.442692e+03	4.405175e+02	0.000000e+00	3.840145e+03	2.404374e+02	0.000000e+00	3.475756e+03	2.459832e+02	0.000000e+00	3.582548e+03	3.131050e+02	0.000000e+00
					1.179383e+04	-4.550717e+03	0.000000e+00	1.173986e+04	-5.484162e+03	0.000000e+00	1.062189e+04	-5.748233e+03	0.000000e+00	1.180024e+04	-3.998124e+03	0.000000e+00
					1.173389e+04	-3.844468e+03	0.000000e+00	1.197836e+04	-3.861204e+03	0.000000e+00	1.188099e+04	-3.736811e+03	0.000000e+00	1.137465e+04	-4.416604e+03	0.000000e+00
					1.124799e+04	-4.291994e+03	0.000000e+00	1.108948e+04	-4.439061e+03	0.000000e+00	1.120866e+04	-4.578218e+03	0.000000e+00	1.076080e+04	-6.185724e+03	0.000000e+00
					1.052158e+04	-6.171076e+03	0.000000e+00	1.061654e+04	-6.082875e+03	0.000000e+00	1.068627e+04	-6.344822e+03	0.000000e+00	1.547934e+04	-6.007495e+03	0.000000e+00
					1.239362e+04	-8.015408e+03	0.000000e+00	1.231714e+04	-8.236339e+03	0.000000e+00	1.259828e+04	-8.069267e+03	0.000000e+00	1.701531e+04	4.509240e+02	0.000000e+00
					1.277290e+04	-3.855596e+03	0.000000e+00	1.248342e+04	-4.291681e+03	0.000000e+00	1.951687e+04	4.566190e+02	0.000000e+00	1.409639e+04	-3.762137e+03	0.000000e+00
					1.395297e+04	-3.853813e+03	0.000000e+00	1.426096e+04	-3.882789e+03	0.000000e+00	1.412655e+04	-4.015160e+03	0.000000e+00	1.454529e+04	-4.454906e+03	0.000000e+00
					1.477335e+04	-4.577894e+03	0.000000e+00	1.473337e+04	-4.284850e+03	0.000000e+00	1.486818e+04	-4.392328e+03	0.000000e+00	1.182077e+04	-6.079763e+03	0.000000e+00
					1.161805e+04	-6.234353e+03	0.000000e+00	1.190807e+04	-6.249025e+03	0.000000e+00	1.174207e+04	-6.340720e+03	0.000000e+00	1.216930e+04	-5.632604e+03	0.000000e+00
					1.242431e+04	-5.486649e+03	0.000000e+00	1.241345e+04	-5.774949e+03	0.000000e+00	1.249642e+04	-5.631837e+03	0.000000e+00	1.225177e+04	-5.774741e+03	0.000000e+00
					1.257980e+04	-5.777980e+03	0.000000e+00	1.225809e+04	-5.482228e+03	0.000000e+00	1.256570e+04	-5.502870e+03	0.000000e+00	1.238428e+04	-6.062964e+03	0.000000e+00
					1.282796e+04	-5.599574e+03	0.000000e+00	1.196367e+04	-6.067125e+03	0.000000e+00	1.167268e+04	-6.097839e+03	0.000000e+00	1.277630e+04	-6.604007e+03	0.000000e+00
					1.252397e+04	-6.308287e+03	0.000000e+00	1.280518e+04	-6.343281e+03	0.000000e+00	1.265315e+04	-6.346342e+03	0.000000e+00	1.271475e+04	-6.477527e+03	0.000000e+00
					1.263261e+04	-6.625855e+03	0.000000e+00	1.667927e+04	4.741056e+02	0.000000e+00	1.612116e+04	5.619883e+02	0.000000e+00	1.487289e+04	5.672211e+02	0.000000e+00
					1.548362e+04	5.952377e+02	0.000000e+00	1.585212e+04	5.965489e+02	0.000000e+00	1.757404e+04	5.394732e+02	0.000000e+00	1.743589e+04	4.800519e+02	0.000000e+00
					1.795083e+04	4.435474e+02	0.000000e+00	1.049310e+04	6.378382e+02	0.000000e+00	9.219915e+03	4.816059e+02	0.000000e+00	1.511397e+04	-4.544577e+03	0.000000e+00
					1.494532e+04	-4.564542e+03	0.000000e+00	1.454020e+04	-4.749504e+03	0.000000e+00	1.486489e+04	-4.724778e+03	0.000000e+00	1.460243e+04	-4.599803e+03	0.000000e+00
					1.446230e+04	-4.653005e+03	0.000000e+00	1.489979e+04	-3.662624e+03	0.000000e+00	1.534625e+04	-4.286436e+03	0.000000e+00	1.518403e+04	-4.162332e+03	0.000000e+00
[...]
			<PointData Scalars="fluid pressure">
				<DataArray type="Float64" Name="fluid pressure" NumberOfComponents="1" format="ascii">
					1.811187e+08	1.058011e+08	3.181951e+07	3.407043e+06	5.625475e+07	1.773571e+07	7.750958e+06	1.819359e+08
					1.536661e+08	1.932823e+08	1.908525e+08	1.876119e+08	1.815624e+08	1.852465e+08	1.812292e+08	1.701231e+08	1.893249e+06
					4.592521e+07	2.187634e+06	7.299090e+05	1.550926e+06	2.505372e+06	6.535542e+07	2.078398e+06	1.008963e+06	1.652496e+06
					6.567843e+07	1.140312e+06	1.254815e+06	1.414766e+06	4.363701e+07	4.617398e+07	5.711177e+07	1.798905e+06	1.688072e+06
					3.230629e+06	3.078280e+06	3.506967e+06	3.065545e+06	3.520914e+07	3.499937e+07	2.010097e+06	2.274896e+06	2.301318e+06
					2.693588e+06	1.118084e+08	2.892249e+06	2.411612e+08	2.127309e+06	2.873117e+06	7.478320e+05	2.413993e+08	3.451413e+07
					1.949994e+06	1.763076e+06	3.851712e+07	1.541325e+06	2.916742e+06	2.020344e+06	3.446367e+07	4.784134e+07	1.786238e+06
					1.600373e+06	2.410109e+06	2.345031e+06	1.997685e+06	2.049413e+06	1.254937e+06	1.218228e+08	1.142182e+08	1.159436e+08
					1.217795e+08	1.148448e+08	1.190456e+08	1.866942e+08	1.776028e+08	1.824478e+08	1.821114e+08	1.857480e+08	1.819209e+08
					2.153788e+08	2.158942e+08	1.469448e+08	2.167712e+08	2.154363e+08	2.199260e+08	2.103960e+08	2.091689e+08	1.495043e+08
					1.362228e+06	1.183768e+08	1.134779e+08	1.093966e+08	1.467034e+08	1.487369e+08	5.292255e+05	1.442319e+06	1.414390e+06
					1.663848e+06	1.553606e+06	1.686656e+08	1.651839e+08	1.609423e+08	1.322375e+08	1.391765e+08	1.340871e+08	1.698124e+08
					1.653272e+08	1.663445e+08	1.606214e+08	1.497680e+08	1.458922e+08	1.504736e+08	1.536983e+08	1.637083e+08	1.600921e+08
					1.490706e+08	1.554608e+08	1.500987e+08	1.538897e+08	1.354417e+08	1.573061e+06	1.044875e+08	1.937909e+08	1.984746e+08
					1.961743e+08	2.023793e+08	1.934129e+08	1.972849e+08	2.014436e+08	2.314865e+08	2.255579e+08	6.466039e+07	2.264021e+08
					2.354542e+08	2.299772e+08	1.606816e+08	1.683283e+08	1.647341e+08	1.492715e+08	1.449405e+08	1.475014e+08	1.532361e+08
					2.010133e+08	2.322585e+08	2.263150e+08	6.501190e+07	2.146454e+08	2.196633e+08	2.154017e+08	2.091783e+08	2.126517e+08
					1.666399e+08	1.849189e+08	1.772929e+08	1.810882e+08	1.813257e+08	2.016364e+08	1.933901e+08	1.975847e+08	7.738546e+05
					1.921536e+06	1.425247e+06	9.074145e+05	1.366007e+08	1.616249e+08	1.684482e+08	1.218059e+08	1.176952e+08	1.181765e+08
					1.148637e+08	1.328998e+08	1.295267e+08	1.334265e+08	1.371801e+08	1.802479e+08	5.620384e+07	1.774423e+08	1.845148e+08
					1.761360e+08	2.298324e+08	2.357604e+08	2.313102e+08	1.192107e+06	1.182085e+08	1.298191e+08	1.232412e+06	1.159524e+08
					1.183812e+08	1.192018e+08	1.227194e+08	1.345274e+08	1.378372e+08	1.300062e+08	1.328894e+08	1.776425e+08	1.817557e+08
					1.822100e+08	1.846420e+08	1.657024e+08	1.618354e+08	1.695714e+08	1.657452e+08	1.695350e+08	1.696830e+08	1.616840e+08
					1.622973e+08	1.773005e+08	1.649384e+08	1.773320e+08	1.780972e+08	1.919034e+08	1.839160e+08	1.849014e+08	1.849597e+08
					1.884947e+08	1.924688e+08	1.155980e+06	1.825430e+06	1.932098e+06	1.539279e+06	1.701825e+06	9.845372e+05	1.239113e+06
					1.946868e+06	1.720776e+06	2.379302e+06	1.369741e+08	1.374953e+08	1.424018e+08	1.417705e+08	1.384060e+08	1.398132e+08
					3.922711e+07	1.300975e+08	1.267756e+08	1.174139e+08	1.224217e+08	4.152854e+07	1.207974e+08	1.280180e+08	1.241253e+08
					1.302929e+08	1.153832e+08	3.711696e+07	1.306088e+08	1.260619e+08	1.274003e+08	1.222737e+08	1.171318e+08	1.235537e+08
					1.154965e+08	1.211125e+08	1.131667e+08	1.140604e+08	1.314880e+08	1.242017e+08	1.226046e+08	1.312492e+08	1.280445e+08
					1.329459e+08	1.076859e+06	1.430183e+06	1.618523e+06	1.382350e+08	1.423166e+08	1.458608e+08	3.721329e+07	1.222445e+08
					1.262417e+08	1.220003e+08	1.143371e+08	3.692743e+07	1.111525e+08	1.062417e+08	1.147435e+08	1.099606e+08	6.536018e+07
					6.524621e+07	2.354599e+08	2.380153e+08	2.358227e+08	2.305921e+08	2.270845e+08	6.475729e+07	6.525450e+07	1.965897e+08
					1.945487e+08	1.673665e+08	1.730539e+08	1.770773e+08	1.724170e+08	1.859322e+08	1.905620e+08	1.851894e+08	1.765901e+08
					1.738580e+08	1.732779e+08	1.693029e+08	1.778482e+08	1.863182e+08	1.916990e+08	1.865776e+08	5.889491e+07	5.533941e+07
					1.518861e+08	1.433063e+08	1.523529e+08	1.441951e+08	1.485402e+08	1.562721e+08	1.541466e+08	1.610775e+08	1.585386e+08
					4.650768e+07	5.232059e+07	1.383201e+08	1.410194e+08	1.444267e+08	1.366235e+08	1.286549e+08	1.310891e+08	1.218573e+08
					1.134956e+08	1.152116e+08	3.931691e+07	1.241660e+08	1.290710e+08	1.209428e+08	1.300390e+08	1.282470e+08	4.354565e+07
					1.257492e+08	1.221868e+08	1.766828e+08	5.449559e+07	5.359376e+07	1.681281e+08	1.596751e+08	4.498313e+07	1.288742e+08
					1.335851e+08	1.330328e+08	1.290327e+08	1.292924e+08	1.211436e+08	1.255160e+08	1.245435e+08	1.468322e+06	1.176232e+06
					1.607505e+06	1.732384e+06	2.265726e+06	1.465098e+06	1.158690e+06	8.643192e+05	1.864740e+06	8.859484e+05	2.302654e+08
					2.006692e+08	1.772960e+08	1.761337e+08	1.671731e+08	1.714548e+08	1.790015e+08	1.727336e+08	1.692716e+08	1.859360e+08
					1.856266e+08	1.892752e+08	1.903242e+08	1.925531e+08	1.772375e+08	1.774450e+08	1.687243e+08	1.689248e+08	1.731434e+08
					1.687401e+08	1.842204e+08	1.860218e+08	1.936781e+08	1.940293e+08	1.861805e+08	1.890661e+08	1.900337e+08	1.940103e+08
					1.881924e+08	5.895974e+07	1.934087e+08	1.850473e+08	1.843112e+08	1.787441e+08	1.781193e+08	5.601889e+07	5.393160e+07
					1.605072e+08	5.305928e+07	1.632507e+08	1.554369e+08	1.702161e+08	5.509058e+07	1.769898e+08	1.751350e+08	1.741157e+08
					1.721694e+08	5.720276e+07	2.185752e+08	2.193501e+08	2.100773e+08	2.196366e+08	2.192116e+08	2.110389e+08	2.124427e+08
					2.198072e+08	2.245326e+08	2.287522e+08	2.231392e+08	2.232999e+08	2.358899e+08	2.269405e+08	2.280226e+08	6.379814e+07
					2.086532e+08	2.110607e+08	2.025250e+08	2.118545e+08	2.132418e+08	2.057863e+08	2.056736e+08	2.015470e+08	1.974608e+08
					2.020351e+08	1.987185e+08	1.940091e+08	1.934217e+08	1.993493e+08	1.915962e+08	1.964377e+08	1.962712e+08	1.920372e+08
					1.884415e+08	1.893558e+08	1.927498e+08	1.841309e+08	2.092534e+08	2.007376e+08	2.044297e+08	6.022235e+07	2.059045e+08
					2.111406e+08	2.025772e+08	2.048222e+08	2.011342e+08	1.978701e+08	1.996903e+08	1.958603e+08	1.862924e+08	1.939161e+08
					1.914053e+08	1.972557e+08	2.010179e+08	2.049071e+08	1.958317e+08	2.109768e+08	2.088063e+08	2.031396e+08	1.525343e+08
					1.529787e+08	1.579467e+08	1.605301e+08	1.562703e+08	1.776585e+08	1.787656e+08	1.734802e+08	1.736171e+08	1.694765e+08
					1.758873e+08	1.722155e+08	1.759388e+08	1.528625e+08	1.367090e+08	1.354068e+08	1.435509e+08	1.386726e+08	1.403043e+08
					1.359843e+08	1.439606e+08	1.423403e+08	1.613573e+08	1.560081e+08	1.519043e+08	1.566726e+08	1.608301e+08	1.526674e+08
					1.509423e+08	1.698662e+08	1.665389e+08	1.687136e+08	1.721303e+08	1.750002e+08	1.727001e+08	1.605992e+08	1.639668e+08
					1.681218e+08	1.607609e+08	1.539293e+08	1.569961e+08	1.615816e+08	1.533768e+08	1.534881e+08	1.575977e+08	1.616143e+08
					1.574138e+08	1.536036e+08	1.687802e+08	1.729089e+08	1.704214e+08	1.798165e+08	1.734061e+08	1.766279e+08	1.717563e+08
					1.786929e+08	1.754299e+08	1.770379e+08	1.377415e+08	1.451732e+08	1.413340e+08	1.366563e+08	1.453573e+08	1.409097e+08
					1.455841e+08	1.374636e+08	1.945599e+08	1.930540e+08	1.846354e+08	1.896528e+08	1.891383e+08	1.936429e+08	1.846862e+08
					6.043702e+07	1.950700e+08	2.024601e+08	2.064811e+08	2.106746e+08	2.026603e+08	2.104297e+08	2.185232e+08	2.102846e+08
					2.189162e+08	2.016686e+08	1.977846e+08	2.024347e+08	1.980663e+08	1.943707e+08	1.937249e+08	2.022060e+08	2.186916e+08
					2.276303e+08	2.236726e+08	2.191661e+08	2.247157e+08	2.266423e+08	2.228694e+08	2.062307e+08	2.018467e+08	2.046799e+08
					2.071508e+08	2.110732e+08	2.347959e+08	2.353153e+08	2.297972e+08	2.297430e+08	2.352053e+08	6.526848e+07	2.395056e+08
					2.376793e+08	6.527734e+07	2.368113e+08	2.341331e+08	2.313213e+08	2.336553e+08	2.334399e+08	2.228716e+08	2.189818e+08
					2.289801e+08	2.273349e+08	2.179551e+08	2.263229e+08	2.199824e+08	2.180735e+08	2.273826e+08	2.035852e+08	2.104321e+08
					2.080223e+08	2.057642e+08	2.027727e+08	2.102440e+08	2.110118e+08	1.946056e+08	1.858792e+08	1.894955e+08	1.965199e+08
					1.859963e+08	2.181344e+08	6.368033e+07	2.182175e+08	2.215462e+08	2.170722e+08	2.096909e+08	2.046082e+08	2.010091e+08
					1.983825e+08	1.991238e+08	1.943218e+08	2.026144e+08	2.087701e+08	1.980804e+08	1.999696e+08	1.851988e+08	2.108096e+08
					1.995811e+08	1.971156e+08	6.480904e+07	2.255048e+08	2.163380e+08	2.245330e+08	2.208612e+08	2.251187e+08	2.158791e+08
					2.071913e+08	2.106560e+08	2.029414e+08	2.050210e+08	2.098288e+08	2.017553e+08	2.073972e+08	2.093236e+08	1.465939e+08
					1.052409e+08	1.086617e+08	1.133884e+08	1.064618e+08	1.325788e+06	1.118729e+08	8.129029e+05	1.421236e+06	1.135372e+06
					1.122673e+06	8.876596e+05	1.120584e+07	6.027121e+06	6.970418e+06	7.682596e+06	1.029243e+07	1.716230e+07	1.410407e+07
					1.240105e+07	1.091833e+08	1.085025e+08	1.240691e+08	1.251248e+08	1.346936e+06	1.006239e+07	1.716961e+07	4.060535e+06
					1.701997e+06	1.208611e+08	1.281993e+08	1.255812e+08	1.123236e+08	1.070327e+08	1.127177e+08	1.093871e+08	1.047462e+08
					1.035054e+08	3.658809e+07	1.371537e+08	1.290814e+08	1.322919e+08	1.336253e+08	1.298616e+08	1.390930e+08	4.474668e+07
					4.573262e+07	1.420264e+08	1.605150e+08	1.577627e+08	1.459045e+08	1.523648e+08	1.500055e+08	1.608689e+08	1.541202e+08
					1.447155e+08	1.410902e+08	1.462998e+08	1.384235e+08	1.277339e+08	1.351637e+08	1.305078e+08	1.327872e+08	1.292649e+08
					1.383488e+08	1.298964e+08	1.355111e+08	1.303780e+08	1.214985e+08	1.248946e+08	1.287697e+08	1.259636e+08	1.344827e+08
					1.441298e+08	1.360299e+08	1.379880e+08	1.460979e+08	1.393810e+08	1.588316e+08	1.522131e+08	1.775373e+08	1.690495e+08
					1.606055e+08	1.533748e+08	1.355238e+08	1.433660e+08	1.368144e+08	1.390925e+08	1.447029e+08	1.610726e+08	1.647631e+08
					1.638956e+08	1.609586e+08	1.690733e+08	1.779147e+08	1.572679e+08	1.608176e+08	1.524710e+08	1.570144e+08	1.517702e+08
					1.538320e+08	1.607130e+08	1.529654e+08	1.611855e+08	1.573131e+08	1.538384e+08	1.556684e+08	1.434490e+08	1.473871e+08
					1.403503e+08	1.433130e+08	1.370530e+08	1.451335e+08	1.472748e+08	1.497282e+08	1.463593e+08	1.578210e+08	1.620894e+08
					1.614037e+08	1.610549e+08	1.636449e+08	1.707488e+08	1.693590e+08	1.777043e+08	1.376768e+08	4.396314e+07	1.412538e+08
					1.356492e+08	1.463698e+08	1.463553e+08	1.637165e+08	1.699793e+08	1.641676e+08	1.628191e+08	1.678772e+08	1.543825e+08
					1.543043e+08	1.607841e+08	1.591135e+08	1.631965e+08	1.561737e+08	1.578029e+08	1.634508e+08	8.959287e+05	1.630960e+06
					2.228836e+06	1.645958e+06	1.719866e+06	1.010409e+06	1.523484e+06	5.553985e+05	1.067251e+06	1.011124e+06	1.140138e+06
					1.953383e+06	8.647265e+05	1.046343e+06	1.367238e+06	1.578619e+06	1.474110e+06	1.362755e+08	1.392542e+08	1.449624e+08
					1.463445e+08	1.541076e+08	1.461130e+08	1.539834e+08	1.492646e+08	1.501830e+08	1.576498e+08	1.608799e+08	1.543378e+08
					1.575314e+08	1.551818e+08	1.444686e+08	1.537892e+08	1.456136e+08	1.503687e+08	1.112684e+08	1.105934e+08	1.077312e+08
					1.027008e+08	1.200532e+08	1.165546e+08	1.113932e+08	1.171177e+08	1.197915e+08	1.212851e+08	1.240205e+08	1.270873e+08
					9.612753e+05	2.225001e+08	2.259677e+08	2.170528e+08	2.155051e+08	2.135184e+08	2.189970e+08	2.144651e+08	2.136093e+08
					2.336257e+08	2.126753e+08	2.104943e+08	2.198637e+08	2.208875e+08	2.150752e+08	2.144469e+08	1.447111e+08	2.192378e+08
					2.089046e+08	2.037237e+08	2.120600e+08	2.069202e+08	2.193578e+08	1.816364e+08	1.846502e+08	1.786988e+08	1.819330e+08
					1.821234e+08	1.860121e+08	1.813956e+08	4.125659e+07	1.777811e+08	1.866606e+08	1.819781e+08	1.872589e+08	1.774847e+08
					1.806898e+08	1.683270e+08	1.949335e+08	2.397966e+08	1.158973e+08	1.230095e+08	1.198332e+08	1.677142e+06	1.900171e+08
					1.881299e+08	1.930640e+08	1.850942e+08	1.866694e+08	1.893935e+08	1.911295e+07	1.978753e+07	1.664240e+07	2.059212e+07
					2.238786e+07	2.109127e+07	1.700817e+07	1.851355e+07	2.052778e+07	1.947444e+07	1.616396e+07	2.027178e+07	1.706637e+07
					2.028457e+07	2.295296e+07	3.881967e+07	4.187998e+07	3.686094e+07	3.915942e+07	1.469609e+07	1.874792e+07	2.035687e+07
					3.934240e+06	1.986996e+07	4.065767e+07	3.978027e+07	4.163977e+07	2.533646e+06	1.396334e+06	4.320276e+06	1.971839e+07
					1.883836e+07	1.782483e+07	1.257270e+08	1.103705e+08	1.187922e+08	2.344995e+07	2.010719e+07	2.070825e+07	5.552796e+07
					5.706447e+07	5.652427e+07	5.846582e+07	6.620542e+07	6.600736e+07	6.602881e+07	6.528402e+07	6.593304e+07	6.596634e+07
					1.909038e+08	1.728949e+08	1.828499e+08	1.820878e+08	6.611554e+07	6.633103e+07	6.482853e+07	6.446141e+07	5.504887e+07
					4.020198e+07	4.062502e+07	4.254874e+07	3.787588e+07	3.918299e+07	3.850682e+07	4.143683e+07	3.523983e+07	4.166135e+07
					4.236072e+07	4.968782e+07	5.154300e+07	4.951989e+07	4.749431e+07	4.040034e+07	4.231457e+07	4.116747e+07	3.045991e+07
					3.120243e+07	3.308771e+07	4.173732e+07	4.014622e+07	3.660998e+07	3.934952e+07	4.605891e+07	4.803415e+07	3.050701e+07
					2.847226e+07	4.826341e+07	4.581544e+07	5.062650e+07	4.100578e+07	6.486954e+07	5.829353e+07	6.224992e+07	5.008991e+07
					4.893997e+07	6.449543e+07	6.510132e+07	6.410068e+07	6.541983e+07	6.217649e+07	6.079721e+07	6.098289e+07	6.225793e+07
					6.333636e+07	6.099193e+07	6.200771e+07	6.569931e+07	6.484022e+07	6.588672e+07	1.828133e+08	1.815372e+08	2.080188e+08
					2.153590e+08	2.128279e+08	2.243415e+08	2.053883e+08	6.587205e+07	2.391321e+08	6.594093e+07	2.146322e+08	2.144100e+08
					2.216403e+08	6.336008e+07	6.576823e+07	6.564302e+07	6.619802e+07	6.577980e+07	6.465126e+07	6.162465e+07	6.094133e+07
					6.223477e+07	6.292959e+07	6.201087e+07	6.236719e+07	6.091134e+07	6.132535e+07	6.116952e+07	6.196440e+07	6.187803e+07
					6.295965e+07	1.477156e+07	1.046330e+07	1.253253e+07	9.768397e+06	2.693074e+07	2.904783e+07	3.184811e+07	2.944727e+07
					1.237696e+06	3.833773e+06	1.068319e+06	1.105649e+07	8.586801e+06	1.263697e+07	1.059198e+07	2.738887e+07	3.081975e+07
					3.239329e+07	3.354097e+07	3.224157e+07	3.410427e+07	3.181194e+07	9.571029e+06	1.183774e+07	6.357179e+06	7.601730e+06
					1.226904e+08	1.151563e+08	1.061176e+08	4.227952e+07	4.059254e+07	3.767286e+07	3.004540e+07	2.922737e+07	3.095537e+07
					1.494375e+08	1.575369e+08	1.501346e+08	1.411702e+08	7.038649e+06	9.814746e+06	1.231700e+07	9.709617e+06	3.658074e+06
					8.402610e+06	4.685104e+06	1.191073e+07	8.277182e+06	2.980939e+07	3.118130e+07	2.893694e+07	3.099240e+07	2.876909e+07
					2.616293e+07	2.848864e+07	1.465896e+07	1.795255e+07	1.766236e+07	2.157911e+07	1.345640e+07	1.800929e+07	2.118963e+07
					3.958543e+06	6.519568e+06	5.024419e+06	9.375893e+06	2.922208e+07	2.627195e+07	2.894528e+07	3.962587e+07	4.235535e+07
					3.937342e+07	3.673146e+07	4.710193e+07	4.848591e+07	5.159708e+07	4.979746e+07	4.140556e+07	3.911404e+07	3.725659e+07
					3.837323e+07	2.496812e+07	3.022812e+07	2.872492e+07	3.146023e+07	6.059743e+06	3.321596e+06	4.846628e+07	4.706292e+07
					2.806176e+07	2.880489e+07	2.958686e+07	2.605494e+06	5.340563e+06	7.741963e+06	5.222937e+06	3.096072e+07	3.380936e+07
					2.871652e+07	3.113491e+07	6.091101e+06	5.335985e+06	8.395476e+06	2.450022e+07	2.016069e+07	2.023774e+07	4.118617e+06
					6.695716e+06	1.031707e+07	7.692997e+06	1.618786e+07	2.027226e+07	1.838108e+07	4.996339e+06	1.323747e+07	2.334327e+07
					2.114490e+07	3.171940e+07	3.370568e+07	2.836721e+07	3.100223e+07	2.390243e+07	1.940596e+07	7.969368e+06	1.255799e+07
					2.064942e+07	2.055796e+07	1.982624e+07	3.182003e+07	3.277217e+07	2.730542e+07	5.329430e+07	5.598026e+07	6.118568e+07
					5.059244e+07	5.475921e+07	5.330231e+07	5.088577e+07	5.730098e+07	6.007296e+07	5.852824e+07	6.130115e+07	5.985187e+07
					6.290337e+07	5.958682e+07	6.038832e+07	5.732301e+07	5.847540e+07	5.780657e+07	5.976662e+07	5.683287e+07	5.899742e+07
					5.501324e+07	5.378461e+07	3.048910e+07	3.212478e+07	3.005228e+07	2.621810e+07	3.323642e+07	2.741040e+07	2.640348e+07
					2.360681e+07	1.698282e+07	2.879529e+07	2.231263e+07	2.441643e+07	2.109539e+07	1.745281e+07	2.142686e+07	2.368062e+07
					2.934093e+07	2.291803e+07	1.731083e+07	2.295326e+07	2.580885e+07	2.592388e+07	2.877676e+07	1.282999e+07	1.249838e+07
					1.500680e+07	1.313460e+07	1.692487e+07	1.517741e+07	1.530129e+07	1.379834e+07	1.335813e+07	1.822165e+07	2.228218e+07
					2.766829e+07	2.855385e+07	2.253771e+07	2.558462e+07	2.403634e+07	2.852335e+07	2.632067e+07	2.648151e+07	2.816990e+07
					1.736572e+07	1.470893e+07	1.226944e+07	1.623175e+07	1.476141e+07	2.369656e+07	1.068953e+07	5.788246e+06	1.172610e+07
					1.859918e+07	1.870589e+07	1.575747e+07	1.354378e+07	9.338551e+06	1.575467e+07	1.232729e+07	1.891200e+07	2.149310e+07
					8.894583e+06	1.487373e+07	9.959547e+06	1.092754e+07	1.062162e+07	7.000084e+06	1.576451e+07	1.327224e+07	2.611056e+07
					9.117070e+06	6.724166e+06	5.202229e+06	2.911959e+07	2.294364e+07	1.315632e+07	2.838763e+07	2.631299e+07	3.384940e+07
					3.821040e+07	2.922618e+07	3.280102e+07	2.672671e+07	2.792911e+07	1.825955e+07	8.032155e+06	1.207858e+07	1.530392e+07
					1.130036e+07	8.067403e+06	2.978312e+06	5.778729e+06	9.529288e+06	3.581366e+06	2.333476e+06	2.034513e+06	3.661199e+07
					3.739543e+07	3.492002e+07	3.317340e+07	3.566016e+07	4.666821e+07	4.227624e+07	4.354569e+07	4.636965e+07	4.394037e+07
					4.624438e+07	3.188044e+07	3.620868e+07	3.256232e+07	3.723199e+07	3.375494e+07	3.883852e+07	3.371917e+07	3.601961e+07
					3.645908e+07	3.562494e+07	3.799154e+07	4.123271e+07	4.394204e+07	4.118331e+07	4.567438e+07	4.063148e+07	4.127682e+07
					3.705971e+07	3.901190e+07	3.920676e+07	4.070662e+07	3.359629e+07	5.035037e+07	4.722426e+07	4.886605e+07	5.016787e+07
					5.506494e+07	5.136201e+07	5.262581e+07	4.806552e+07	4.283812e+07	4.683124e+07	4.256082e+07	4.520919e+07	4.570234e+07
					4.126929e+07	3.085085e+07	3.551020e+07	3.121498e+07	3.760978e+07	1.511960e+07	8.674801e+06	1.344903e+07	1.046893e+07
					8.295445e+06	1.199983e+07	3.262895e+06	1.392960e+07	1.321661e+07	3.908178e+06	1.436418e+06	3.481232e+06	1.898386e+07
					2.550981e+07	3.189036e+07	4.087311e+07	3.571064e+07	4.379503e+07	4.197972e+07	4.601212e+07	5.122224e+07	5.265744e+07
					5.233785e+07	4.991396e+07	4.623518e+07	5.051600e+07	4.674855e+07	3.065850e+07	3.431916e+07	3.634583e+07	4.200757e+07
					4.016076e+07	2.656150e+07	3.219554e+07	4.198731e+07	4.457475e+07	4.692612e+07	3.169959e+07	3.623956e+07	3.403022e+07
					3.141005e+07	3.654597e+07	3.410489e+07	2.780287e+07	2.253279e+07	2.129005e+07	2.385033e+07	2.714147e+07	2.573638e+07
					2.329694e+07	2.328451e+07	2.573057e+07	3.349523e+07	3.645919e+07	3.833212e+07	3.465731e+07	3.239967e+07	3.756322e+07
					2.542331e+06	4.273915e+06	9.530664e+06	5.946386e+06	1.037984e+07	3.664120e+06	6.937708e+06	8.179028e+06	9.032172e+06
					1.016703e+07	9.989600e+06	1.364201e+07	1.569894e+07	1.257805e+07	1.457662e+07	1.133321e+07	1.211599e+07	2.082628e+07
					1.934051e+07	1.486251e+07	1.506225e+07	7.756665e+06	2.717845e+07	2.326854e+07	2.318729e+07	2.026168e+07	1.545730e+07
					1.117124e+07	2.624822e+07	2.032023e+07	2.584744e+07	3.261506e+07	2.506799e+07	2.496231e+07	3.699834e+07	2.540658e+07
					3.155141e+07	2.605002e+07	2.258018e+07	2.677549e+07	3.268471e+07	3.213374e+07	3.380827e+07	6.615403e+06	3.217764e+06
					5.146813e+06	1.732999e+07	1.401143e+07	1.199976e+07	1.721741e+07	1.449974e+07	1.724234e+07	1.134746e+07	1.390582e+07
					1.875608e+07	1.078939e+07	5.655574e+06	7.579589e+06	5.885090e+06	1.079930e+07	1.762371e+07	5.964552e+06	6.374293e+06
					2.408997e+06	4.630271e+06	9.453791e+06	3.216073e+06	4.100177e+06	7.357095e+06	5.188792e+06	6.021110e+06	7.433907e+06
					7.970018e+06	3.350087e+06	1.007277e+07	4.306466e+06	3.866430e+06	3.328997e+06	8.919541e+06	1.601325e+08	1.678846e+08