<?xml version="1.0"?>

<!--
CSMP_Simulation
-->

<VTKFile type="UnstructuredGrid" version="1.0" byte_order="LittleEndian">
	<UnstructuredGrid>
		<Piece NumberOfPoints="2922" NumberOfCells="5619">
			<Points>
				<DataArray type="Float64" Name="Position" NumberOfComponents="3" format="ascii">
					1.062348e+04	-6.219427e+03	0.000000e+00	1.328123e+04	-3.388001e+03	0.000000e+00	6.533000e+03	-2.871000e+03	0.000000e+00	8.993999e+03	3.450022e+02	0.000000e+00
					6.434000e+03	-6.251000e+03	0.000000e+00	6.415000e+03	-1.312000e+03	0.000000e+00	8.891000e+03	-1.610000e+02	0.000000e+00	1.593372e+04	-6.223812e+03	0.000000e+00
					1.243124e+04	-5.182061e+03	0.000000e+00	1.180818e+04	-6.661451e+03	0.000000e+00	1.199040e+04	-6.569837e+03	0.000000e+00	1.186573e+04	-6.450233e+03	0.000000e+00
					1.224666e+04	-6.222517e+03	0.000000e+00	1.208180e+04	-6.360720e+03	0.000000e+00	1.135568e+04	-6.216921e+03	0.000000e+00	1.177466e+04	-5.800292e+03	0.000000e+00
					1.484109e+03	2.369937e+02	0.000000e+00	1.048845e+04	-4.576829e+03	0.000000e+00	5.088007e+03	2.164612e+02	0.000000e+00	1.616065e+04	6.885872e+02	0.000000e+00
					5.856588e+03	2.844799e+02	0.000000e+00	5.964146e+03	2.322470e+02	0.000000e+00	1.285384e+04	-8.473227e+03	0.000000e+00	6.554646e+03	2.976259e+02	0.000000e+00
					6.220259e+03	3.810972e+02	0.000000e+00	2.455667e+03	2.604214e+02	0.000000e+00	1.185441e+04	-8.594387e+03	0.000000e+00	8.953729e+02	2.424411e+02	0.000000e+00
					1.642061e+04	5.389531e+02	0.000000e+00	9.022812e+03	5.486281e+02	0.000000e+00	1.072547e+04	-4.265213e+03	0.000000e+00	1.596156e+04	-4.568462e+03	0.000000e+00
					1.049681e+04	-6.339904e+03	0.000000e+00	1.229884e+04	9.679014e+02	0.000000e+00	1.346081e+04	9.303555e+02	0.000000e+00	7.674576e+03	2.576962e+02	0.000000e+00
					8.121128e+03	2.577928e+02	0.000000e+00	8.390419e+03	2.530714e+02	0.000000e+00	1.759058e+04	3.107264e+02	0.000000e+00	1.283469e+04	-3.190105e+03	0.000000e+00
					1.310544e+04	-3.163050e+03	0.000000e+00	6.218396e+03	2.847346e+02	0.000000e+00	1.964998e+04	3.306567e+02	0.000000e+00	1.089832e+04	6.517557e+02	0.000000e+00
					9.482042e+03	5.002750e+02	0.000000e+00	1.461891e+04	-3.601876e+03	0.000000e+00	1.694475e+04	2.822433e+02	0.000000e+00	1.223129e+04	-8.439639e+03	0.000000e+00
					7.092101e+03	3.133630e+02	0.000000e+00	7.447673e+03	2.954910e+02	0.000000e+00	5.479449e+03	3.927924e+02	0.000000e+00	1.430834e+04	-8.440884e+03	0.000000e+00
					1.346187e+04	-3.101654e+03	0.000000e+00	1.466219e+04	5.912805e+02	0.000000e+00	1.431424e+04	6.995984e+02	0.000000e+00	1.198158e+04	-3.600157e+03	0.000000e+00
					1.519729e+04	6.008027e+02	0.000000e+00	1.732254e+04	2.914492e+02	0.000000e+00	1.847268e+04	5.552377e+02	0.000000e+00	1.373014e+04	-3.092539e+03	0.000000e+00
					1.598609e+04	-4.803680e+03	0.000000e+00	1.811668e+03	2.957238e+02	0.000000e+00	2.068111e+03	3.301681e+02	0.000000e+00	3.593477e+02	6.241832e-01	0.000000e+00
					1.315684e+04	9.290093e+02	0.000000e+00	9.757773e+03	6.136685e+02	0.000000e+00	1.013994e+04	6.394650e+02	0.000000e+00	9.949611e+03	7.276424e+02	0.000000e+00
					1.479179e+04	-3.977888e+03	0.000000e+00	1.474764e+04	-3.691732e+03	0.000000e+00	1.224233e+04	-3.775151e+03	0.000000e+00	1.235721e+04	-3.992361e+03	0.000000e+00
					1.239488e+04	-3.732875e+03	0.000000e+00	1.247959e+04	-3.889221e+03	0.000000e+00	1.489970e+04	-6.402044e+03	0.000000e+00	1.471371e+04	-6.063480e+03	0.000000e+00
					1.503558e+04	-6.243497e+03	0.000000e+00	1.463383e+04	-6.231790e+03	0.000000e+00	1.359516e+04	-6.370837e+03	0.000000e+00	1.336635e+04	-6.229341e+03	0.000000e+00
					1.486979e+04	-7.470250e+03	0.000000e+00	1.455711e+04	-7.489929e+03	0.000000e+00	1.120299e+04	-4.942350e+03	0.000000e+00	1.218357e+04	-7.531530e+03	0.000000e+00
					1.251446e+04	-7.480192e+03	0.000000e+00	1.240108e+04	-7.647510e+03	0.000000e+00	1.239322e+04	-7.293615e+03	0.000000e+00	1.368325e+04	-7.242141e+03	0.000000e+00
					1.217897e+04	-5.028812e+03	0.000000e+00	1.378964e+04	8.854108e+02	0.000000e+00	1.351945e+04	-3.856343e+03	0.000000e+00	1.333151e+04	-3.674419e+03	0.000000e+00
					1.350782e+04	-3.520236e+03	0.000000e+00	1.479244e+04	-4.909493e+03	0.000000e+00	1.380050e+04	-4.989557e+03	0.000000e+00	3.084262e+03	3.746820e+02	0.000000e+00
					3.006144e+03	2.572346e+02	0.000000e+00	1.252005e+03	2.691829e+02	0.000000e+00	1.642126e+03	2.829086e+02	0.000000e+00	8.235090e+03	4.169793e+02	0.000000e+00
					1.537108e+04	-5.728762e+03	0.000000e+00	1.550100e+04	-5.598568e+03	0.000000e+00	1.543359e+04	-5.440257e+03	0.000000e+00	1.516251e+04	-4.367050e+03	0.000000e+00
					1.542543e+04	-4.626431e+03	0.000000e+00	1.547978e+04	-4.435709e+03	0.000000e+00	1.421355e+04	-5.774419e+03	0.000000e+00	1.398427e+04	-5.607986e+03	0.000000e+00
					1.433859e+04	-5.644592e+03	0.000000e+00	1.422646e+04	-5.431404e+03	0.000000e+00	1.278519e+04	-5.034132e+03	0.000000e+00	1.297347e+04	-4.888217e+03	0.000000e+00
					1.308886e+04	-5.058455e+03	0.000000e+00	1.295570e+04	-5.179625e+03	0.000000e+00	1.371210e+04	-5.548806e+03	0.000000e+00	1.306586e+04	-5.417419e+03	0.000000e+00
					1.398961e+04	-5.001093e+03	0.000000e+00	1.423737e+04	-5.238687e+03	0.000000e+00	1.553662e+04	-5.035070e+03	0.000000e+00	1.541510e+04	-5.176839e+03	0.000000e+00
					1.433199e+04	-4.490070e+03	0.000000e+00	1.772795e+04	4.701005e+02	0.000000e+00	1.301714e+04	-3.340203e+03	0.000000e+00	1.291928e+04	-6.673458e+03	0.000000e+00
					1.305404e+04	-6.847013e+03	0.000000e+00	1.275393e+04	-6.763001e+03	0.000000e+00	1.299225e+04	-6.992535e+03	0.000000e+00	1.111766e+04	-6.671729e+03	0.000000e+00
					1.100675e+04	-6.816450e+03	0.000000e+00	1.117046e+04	-6.969377e+03	0.000000e+00	1.205000e+04	-8.078535e+03	0.000000e+00	1.184148e+04	-7.859306e+03	0.000000e+00
					1.196430e+04	-8.231484e+03	0.000000e+00	1.298170e+04	-7.885249e+03	0.000000e+00	1.295062e+04	-8.221395e+03	0.000000e+00	1.309178e+04	-8.017537e+03	0.000000e+00
					1.120470e+04	-5.453850e+03	0.000000e+00	1.115255e+04	-5.738876e+03	0.000000e+00	1.126426e+04	-5.604117e+03	0.000000e+00	1.184009e+04	-5.022972e+03	0.000000e+00
					1.172669e+04	-4.862486e+03	0.000000e+00	1.153323e+04	-4.959783e+03	0.000000e+00	1.175756e+04	-5.171477e+03	0.000000e+00	1.534244e+04	-6.934844e+03	0.000000e+00
					1.455437e+04	-8.098472e+03	0.000000e+00	1.476956e+04	-7.877258e+03	0.000000e+00	1.464624e+04	-8.340289e+03	0.000000e+00	1.404268e+04	-7.444684e+03	0.000000e+00
					1.421918e+04	-7.630822e+03	0.000000e+00	1.428388e+04	-7.472196e+03	0.000000e+00	1.526650e+04	-7.239097e+03	0.000000e+00	1.513630e+04	-7.368500e+03	0.000000e+00
					1.581589e+04	-5.652546e+03	0.000000e+00	1.296440e+04	-6.343040e+03	0.000000e+00	1.295470e+04	-6.059130e+03	0.000000e+00	1.303797e+04	-6.200013e+03	0.000000e+00
					1.273442e+04	-6.210589e+03	0.000000e+00	1.360396e+04	-6.962240e+03	0.000000e+00	1.362392e+04	-6.655270e+03	0.000000e+00	1.339020e+04	-6.812359e+03	0.000000e+00
					6.442692e+03	4.405175e+02	0.000000e+00	3.840145e+03	2.404374e+02	0.000000e+00	3.475756e+03	2.459832e+02	0.000000e+00	3.582548e+03	3.131050e+02	0.000000e+00
					1.179383e+04	-4.550717e+03	0.000000e+00	1.173986e+04	-5.484162e+03	0.000000e+00	1.062189e+04	-5.748233e+03	0.000000e+00	1.180024e+04	-3.998124e+03	0.000000e+00
					1.173389e+04	-3.844468e+03	0.000000e+00	1.197836e+04	-3.861204e+03	0.000000e+00	1.188099e+04	-3.736811e+03	0.000000e+00	1.137465e+04	-4.416604e+03	0.000000e+00
					1.124799e+04	-4.291994e+03	0.000000e+00	1.108948e+04	-4.439061e+03	0.000000e+00	1.120866e+04	-4.578218e+03	0.000000e+00	1.076080e+04	-6.185724e+03	0.000000e+00
					1.052158e+04	-6.171076e+03	0.000000e+00	1.061654e+04	-6.082875e+03	0.000000e+00	1.068627e+04	-6.344822e+03	0.000000e+00	1.547934e+04	-6.007495e+03	0.000000e+00
					1.239362e+04	-8.015408e+03	0.000000e+00	1.231714e+04	-8.236339e+03	0.000000e+00	1.259828e+04	-8.069267e+03	0.000000e+00	1.701531e+04	4.509240e+02	0.000000e+00
					1.277290e+04	-3.855596e+03	0.000000e+00	1.248342e+04	-4.291681e+03	0.000000e+00	1.951687e+04	4.566190e+02	0.000000e+00	1.409639e+04	-3.762137e+03	0.000000e+00
					1.395297e+04	-3.853813e+03	0.000000e+00	1.426096e+04	-3.882789e+03	0.000000e+00	1.412655e+04	-4.015160e+03	0.000000e+00	1.454529e+04	-4.454906e+03	0.000000e+00
					1.477335e+04	-4.577894e+03	0.000000e+00	1.473337e+04	-4.284850e+03	0.000000e+00	1.486818e+04	-4.392328e+03	0.000000e+00	1.182077e+04	-6.079763e+03	0.000000e+00
					1.161805e+04	-6.234353e+03	0.000000e+00	1.190807e+04	-6.249025e+03	0.000000e+00	1.174207e+04	-6.340720e+03	0.000000e+00	1.216930e+04	-5.632604e+03	0.000000e+00
					1.242431e+04	-5.486649e+03	0.000000e+00	1.241345e+04	-5.774949e+03	0.000000e+00	1.249642e+04	-5.631837e+03	0.000000e+00	1.225177e+04	-5.774741e+03	0.000000e+00
					1.257980e+04	-5.777980e+03	0.000000e+00	1.225809e+04	-5.482228e+03	0.000000e+00	1.256570e+04	-5.502870e+03	0.000000e+00	1.238428e+04	-6.062964e+03	0.000000e+00
					1.282796e+04	-5.599574e+03	0.000000e+00	1.196367e+04	-6.067125e+03	0.000000e+00	1.167268e+04	-6.097839e+03	0.000000e+00	1.277630e+04	-6.604007e+03	0.000000e+00
					1.500551e+04	-7.272801e+03	0.000000e+00	1.436310e+04	-7.629506e+03	0.000000e+00	1.405447e+04	-7.614436e+03	0.000000e+00	1.378616e+04	-7.311337e+03	0.000000e+00
					1.449798e+04	-7.361653e+03	0.000000e+00	1.450249e+04	-7.635568e+03	0.000000e+00	1.431253e+04	-7.811639e+03	0.000000e+00	1.414808e+04	-7.968868e+03	0.000000e+00
					1.487244e+04	-7.758708e+03	0.000000e+00	1.460617e+04	-7.765267e+03	0.000000e+00	1.424603e+04	-8.234521e+03	0.000000e+00	1.448709e+04	-7.900806e+03	0.000000e+00
					1.464000e+04	-7.940785e+03	0.000000e+00	1.490539e+04	-7.933881e+03	0.000000e+00	1.510985e+04	-7.219671e+03	0.000000e+00	1.487015e+04	-7.309580e+03	0.000000e+00
					1.490000e+04	-6.991785e+03	0.000000e+00	1.434632e+04	-7.340104e+03	0.000000e+00	1.461365e+04	-7.391157e+03	0.000000e+00	1.466017e+04	-7.113627e+03	0.000000e+00
					1.516388e+04	-7.108649e+03	0.000000e+00	1.519896e+04	-6.954921e+03	0.000000e+00	1.522463e+04	-6.802707e+03	0.000000e+00	1.504350e+04	-6.973318e+03	0.000000e+00
[...]
			<PointData Scalars="bulk fluid density">
				<DataArray type="Float64" Name="bulk fluid density" NumberOfComponents="1" format="ascii">
					1.797388e+02	5.259178e+02	9.154541e+02	9.894677e+02	5.599045e+02	9.883846e+02	8.397728e+02	1.786062e+02
					3.279914e+02	4.097410e+02	4.059046e+02	4.006769e+02	3.906376e+02	3.968270e+02	3.900281e+02	3.655120e+02	1.000001e+03
					3.479158e+02	9.933076e+02	9.993914e+02	9.234219e+02	9.022904e+02	3.129653e+02	9.440413e+02	9.808650e+02	9.998843e+02
					2.789085e+02	9.996258e+02	9.994954e+02	9.965885e+02	5.799879e+02	4.359026e+02	1.549837e+02	9.998740e+02	9.998114e+02
					9.894757e+02	9.836181e+02	9.927702e+02	1.000518e+03	1.913748e+03	1.106662e+03	9.520370e+02	1.000174e+03	9.990625e+02
					9.993269e+02	1.048401e+03	9.991882e+02	4.208517e+02	9.911608e+02	9.908644e+02	9.321643e+02	4.189270e+02	1.049020e+03
					9.996939e+02	9.998862e+02	9.857452e+02	9.989762e+02	1.000278e+03	9.999262e+02	8.856999e+02	2.053102e+02	9.999441e+02
					9.998654e+02	9.972318e+02	1.000065e+03	9.994319e+02	9.998251e+02	9.995816e+02	5.417889e+02	1.026834e+03	4.978282e+02
					4.319225e+02	4.868589e+02	4.445486e+02	3.991840e+02	3.832525e+02	3.921261e+02	3.915679e+02	3.976467e+02	3.912457e+02
					4.426124e+02	4.434177e+02	3.121362e+02	4.446670e+02	4.427741e+02	4.491176e+02	4.355776e+02	4.337729e+02	3.186852e+02
					9.996933e+02	2.501142e+02	4.640276e+02	5.185291e+02	3.124075e+02	3.169815e+02	9.993453e+02	9.997749e+02	9.997628e+02
					9.998855e+02	9.946476e+02	3.621041e+02	3.539216e+02	3.443166e+02	2.614571e+02	2.799479e+02	1.680318e+02	3.647885e+02
					3.544004e+02	3.567745e+02	3.436647e+02	3.192781e+02	3.106421e+02	3.208516e+02	3.280645e+02	3.506801e+02	3.424531e+02
					3.177231e+02	3.320078e+02	3.142634e+02	3.283301e+02	2.873882e+02	9.998360e+02	4.532669e+02	4.105419e+02	4.178831e+02
					4.142709e+02	4.237624e+02	4.097875e+02	4.107056e+02	4.195602e+02	4.512674e+02	4.422737e+02	3.315354e+02	4.579422e+02
					4.654638e+02	4.626764e+02	3.437459e+02	3.613165e+02	3.529852e+02	3.181363e+02	3.084688e+02	3.141640e+02	3.270104e+02
					4.210064e+02	4.560435e+02	4.383459e+02	3.121521e+02	4.416503e+02	4.487452e+02	4.427277e+02	4.297168e+02	4.368243e+02
					3.098366e+02	3.962930e+02	3.825079e+02	3.898126e+02	3.902479e+02	4.226707e+02	4.099129e+02	4.164822e+02	9.882116e+02
					1.000003e+03	9.997148e+02	9.995191e+02	2.898436e+02	3.459547e+02	1.583015e+02	5.421727e+02	3.259083e+02	5.401047e+02
					1.288546e+03	2.695727e+02	1.693621e+02	1.396689e+02	2.790891e+02	3.606019e+02	1.530654e+02	1.778965e+02	1.875079e+02
					3.796754e+02	4.612354e+02	4.412524e+02	4.637140e+02	9.993791e+02	2.501672e+02	2.748893e+02	9.996765e+02	5.022165e+02
					4.489403e+02	4.806307e+02	2.610550e+02	2.853113e+02	2.921326e+02	2.748077e+02	2.772993e+02	3.833287e+02	3.909868e+02
					3.917411e+02	3.958325e+02	3.552758e+02	3.464362e+02	3.642300e+02	3.553747e+02	3.641513e+02	3.644816e+02	3.460898e+02
					3.474774e+02	3.825198e+02	3.534937e+02	3.825669e+02	3.843457e+02	4.075763e+02	4.349746e+02	4.487053e+02	4.481120e+02
					4.364913e+02	4.384992e+02	4.489023e+02	4.553293e+02	4.603017e+02	4.464943e+02	4.526205e+02	4.423464e+02	4.579847e+02
					4.541073e+02	3.846396e+02	4.326373e+02	4.365103e+02	4.239606e+02	4.376579e+02	4.396426e+02	4.287707e+02	4.283353e+02
					4.224291e+02	4.162208e+02	4.232243e+02	3.946274e+02	3.962653e+02	3.963614e+02	4.021117e+02	4.084602e+02	9.993165e+02
					9.998450e+02	9.991681e+02	9.994698e+02	9.997943e+02	9.995302e+02	9.996511e+02	1.000033e+03	9.976974e+02	9.982970e+02
					2.849804e+02	2.880379e+02	3.028605e+02	3.013884e+02	2.939499e+02	2.970974e+02	8.669515e+02	1.975022e+02	3.123823e+02
					7.307652e+02	4.347068e+02	8.093347e+02	3.478076e+02	4.840259e+02	5.486635e+02	2.668364e+02	5.273908e+02	1.061523e+03
					2.766409e+02	2.665257e+02	2.697913e+02	2.595090e+02	5.262916e+02	4.468011e+02	4.505390e+02	2.560290e+02	3.579936e+02
					5.050558e+02	2.785900e+02	2.651759e+02	4.895735e+02	2.780841e+02	4.554168e+02	2.818197e+02	9.995465e+02	9.997504e+02
					9.997995e+02	2.936042e+02	3.027017e+02	3.105719e+02	1.645802e+03	2.583389e+02	2.669197e+02	2.574570e+02	4.484473e+02
					1.267787e+03	5.167051e+02	3.718582e+02	4.556910e+02	5.165554e+02	3.242743e+02	3.142838e+02	4.610470e+02	4.510627e+02
					4.612040e+02	4.590409e+02	4.587823e+02	3.875818e+02	3.031751e+02	4.149282e+02	4.117375e+02	3.591381e+02	3.724679e+02
					3.820003e+02	3.709086e+02	3.979290e+02	4.054428e+02	3.966760e+02	3.807897e+02	3.743600e+02	3.729953e+02	3.636141e+02
					3.838130e+02	3.985742e+02	4.072420e+02	3.989955e+02	1.691227e+02	1.487614e+02	1.621059e+02	1.753202e+02	2.991781e+02
					1.418455e+02	2.956523e+02	2.947474e+02	1.454609e+02	1.680066e+02	1.502756e+02	1.491603e+02	1.376867e+02	2.685295e+02
					2.733819e+02	2.982965e+02	1.469501e+02	2.579943e+02	2.728412e+02	5.035748e+02	5.664999e+02	5.350618e+02	1.071640e+03
					5.491622e+02	4.581926e+02	2.356536e+02	2.497764e+02	4.950564e+02	5.788445e+02	1.861191e+02	1.685590e+02	3.808952e+02
					1.473255e+02	1.519194e+02	3.513895e+02	3.148598e+02	4.638130e+02	2.730111e+02	2.820714e+02	2.820242e+02	2.737633e+02
					2.737116e+02	4.779247e+02	4.764215e+02	2.668282e+02	9.996859e+02	9.996472e+02	9.998365e+02	9.998597e+02	9.996799e+02
					9.103676e+02	9.748338e+02	9.481584e+02	9.417612e+02	9.535393e+02	4.603485e+02	4.213169e+02	3.825279e+02	3.797535e+02
					3.586989e+02	3.686561e+02	3.861691e+02	3.716877e+02	3.635456e+02	3.979523e+02	3.974493e+02	4.033740e+02	4.050617e+02
					4.085981e+02	3.823778e+02	3.828697e+02	3.622848e+02	3.627447e+02	3.726738e+02	3.623200e+02	3.951332e+02	3.980936e+02
					4.103676e+02	4.109210e+02	3.983505e+02	4.030333e+02	4.046009e+02	4.108898e+02	1.628183e+02	1.796390e+02	1.682353e+02
					1.789976e+02	3.932062e+02	3.334008e+02	3.841258e+02	1.596056e+02	1.321041e+02	1.424534e+02	1.400764e+02	1.746854e+02
					1.508577e+02	3.283945e+02	1.505938e+02	1.710647e+02	3.499721e+02	3.747509e+02	3.674723e+02	1.581873e+02	4.345967e+02
					4.468199e+02	4.182716e+02	4.108686e+02	4.099163e+02	2.910933e+02	3.761257e+02	1.965513e+02	4.101680e+02	4.062092e+02
					4.304540e+02	4.475443e+02	3.905214e+02	3.596188e+02	3.792663e+02	3.513576e+02	3.915897e+02	3.980773e+02	3.903446e+02
					1.273182e+03	3.836646e+02	3.991296e+02	3.913446e+02	4.001039e+02	3.829650e+02	3.890946e+02	3.613655e+02	4.123413e+02
					4.420454e+02	4.531845e+02	2.604277e+02	4.618827e+02	9.998006e+02	4.045774e+02	4.004731e+02	4.034580e+02	4.087503e+02
					3.948765e+02	3.783097e+02	4.073398e+02	4.171753e+02	2.568325e+02	4.289437e+02	4.366397e+02	4.240376e+02	4.273355e+02
					4.219440e+02	4.169344e+02	4.197812e+02	4.137831e+02	3.985324e+02	4.107463e+02	4.067750e+02	4.159718e+02	4.217632e+02
					4.274590e+02	4.137388e+02	4.364007e+02	4.332414e+02	4.248660e+02	3.254652e+02	3.264596e+02	3.376307e+02	3.434560e+02
					3.338375e+02	3.833656e+02	3.857014e+02	3.734663e+02	3.737880e+02	3.640079e+02	3.774345e+02	3.452867e+02	3.295581e+02
					3.213062e+02	2.829579e+02	2.821155e+02	3.052408e+02	2.917705e+02	2.906572e+02	2.820038e+02	3.023481e+02	3.026366e+02
					3.453298e+02	3.331866e+02	3.240013e+02	3.347021e+02	3.441059e+02	3.257280e+02	3.217722e+02	3.649028e+02	3.572249e+02
					3.622316e+02	3.701455e+02	3.769764e+02	3.715782e+02	3.417156e+02	3.241683e+02	3.605181e+02	3.438285e+02	3.283978e+02
					3.351614e+02	3.458564e+02	3.273440e+02	3.275961e+02	3.368424e+02	3.459307e+02	3.364265e+02	3.278530e+02	3.624057e+02
					3.720979e+02	3.662187e+02	3.876341e+02	3.732908e+02	3.809102e+02	3.693665e+02	3.856469e+02	3.780966e+02	3.818531e+02
					2.924666e+02	3.090000e+02	3.004932e+02	2.900759e+02	3.094171e+02	2.995099e+02	3.099458e+02	2.918912e+02	1.706760e+02
					4.073350e+02	3.740689e+02	1.613016e+02	4.027537e+02	3.681999e+02	3.952512e+02	2.705928e+02	4.125507e+02	4.238786e+02
					4.298023e+02	4.359647e+02	4.241678e+02	4.356179e+02	4.470214e+02	4.354167e+02	4.476922e+02	4.227293e+02	4.168094e+02
					4.238304e+02	4.172523e+02	4.114575e+02	4.104408e+02	4.235049e+02	4.473789e+02	4.595588e+02	4.542435e+02	4.480099e+02
					4.555297e+02	4.570067e+02	4.521567e+02	4.294300e+02	4.229677e+02	4.271283e+02	4.307934e+02	4.365399e+02	4.630215e+02
					4.581215e+02	4.622698e+02	4.619190e+02	4.620277e+02	3.113651e+02	4.436216e+02	4.602310e+02	3.340067e+02	4.612352e+02
					4.667667e+02	4.641147e+02	4.663284e+02	4.656548e+02	4.531592e+02	4.477869e+02	4.613587e+02	4.591927e+02	4.463371e+02
					4.578387e+02	4.491909e+02	4.461746e+02	4.505699e+02	4.254871e+02	4.352719e+02	4.320314e+02	4.280593e+02	4.242611e+02
					4.331785e+02	4.363658e+02	4.118279e+02	3.978619e+02	4.037337e+02	4.147541e+02	3.980253e+02	4.321060e+02	3.470108e+02
					4.446025e+02	4.459988e+02	4.446194e+02	3.556049e+02	3.517643e+02	3.166521e+02	4.175775e+02	4.188895e+02	4.113401e+02
					4.235857e+02	4.252707e+02	1.962269e+02	4.098875e+02	3.966854e+02	4.361662e+02	4.196285e+02	4.157597e+02	3.881749e+02
					4.567161e+02	4.440569e+02	4.553837e+02	4.504047e+02	4.561873e+02	4.434017e+02	4.308606e+02	4.359465e+02	4.245712e+02
					4.276293e+02	4.347544e+02	4.228407e+02	4.311639e+02	4.340080e+02	1.587735e+02	8.301356e+02	5.125256e+02	4.488498e+02
					3.012681e+02	9.996955e+02	5.425928e+02	9.994593e+02	9.997320e+02	9.995622e+02	9.995587e+02	9.994641e+02	1.003994e+03
					1.001907e+03	1.002359e+03	1.002676e+03	1.003752e+03	1.003958e+03	1.004553e+03	1.004238e+03	5.458199e+02	5.029786e+02
					2.621231e+02	2.644386e+02	9.996225e+02	1.003488e+03	1.004097e+03	1.000906e+03	9.998831e+02	2.549914e+02	2.713164e+02
					2.654917e+02	4.463664e+02	5.707358e+02	4.966491e+02	4.026938e+02	1.719558e+03	1.082444e+03	1.096671e+03	2.912166e+02
					2.732678e+02	2.804135e+02	2.833732e+02	2.749903e+02	2.955045e+02	3.279432e+02	2.583808e+02	1.768672e+02	3.434108e+02
					3.371503e+02	3.094934e+02	3.249927e+02	1.466889e+02	3.442366e+02	3.290072e+02	3.080074e+02	2.999583e+02	3.115508e+02
					2.940248e+02	2.702939e+02	2.868023e+02	2.764552e+02	2.815262e+02	2.736956e+02	2.938792e+02	2.750797e+02	2.875543e+02
					2.761646e+02	2.563555e+02	2.639597e+02	2.725873e+02	2.663301e+02	2.852849e+02	3.067312e+02	2.887342e+02	2.930851e+02
					3.111014e+02	2.961639e+02	3.396218e+02	3.247521e+02	3.830752e+02	3.630304e+02	3.436236e+02	3.273430e+02	2.875946e+02
					3.050338e+02	2.904507e+02	2.955271e+02	3.079950e+02	3.446933e+02	3.530958e+02	3.511212e+02	3.444341e+02	3.630928e+02
					3.839946e+02	3.360982e+02	3.441169e+02	3.253273e+02	3.355238e+02	3.237588e+02	3.283647e+02	3.438803e+02	3.264306e+02
					3.449554e+02	3.362015e+02	3.283781e+02	3.324742e+02	3.052209e+02	3.139698e+02	2.983277e+02	3.049234e+02	2.910107e+02
					3.089500e+02	3.137131e+02	3.191845e+02	3.116853e+02	3.373451e+02	3.470056e+02	3.454444e+02	3.446587e+02	3.505321e+02
					3.669837e+02	3.637452e+02	3.834715e+02	1.643975e+02	3.180470e+02	2.946791e+02	2.719245e+02	2.880884e+02	3.031859e+02
					3.506724e+02	3.649943e+02	3.517379e+02	3.486462e+02	3.602952e+02	3.264483e+02	3.010775e+02	3.438176e+02	3.110333e+02
					3.479054e+02	3.262473e+02	3.368596e+02	3.306894e+02	9.991054e+02	9.967517e+02	1.000139e+03	9.976053e+02	9.970593e+02
					9.966133e+02	9.997146e+02	9.993595e+02	9.996082e+02	9.984921e+02	9.937141e+02	9.945753e+02	9.994896e+02	9.995360e+02
					9.991449e+02	9.996630e+02	9.995315e+02	2.892723e+02	2.958951e+02	3.085698e+02	3.116139e+02	3.289615e+02	3.111129e+02
					3.286985e+02	3.181505e+02	3.201810e+02	3.369351e+02	3.442548e+02	3.294692e+02	3.366919e+02	3.313403e+02	3.073836e+02
					3.282219e+02	3.098863e+02	3.205627e+02	4.992301e+02	4.918632e+02	5.329028e+02	1.017864e+03	2.533161e+02	4.011165e+02
					4.568942e+02	2.478160e+02	2.531566e+02	2.558980e+02	2.619876e+02	2.688481e+02	9.994583e+02	4.526449e+02	4.573525e+02
					4.450627e+02	4.428730e+02	4.400420e+02	4.478092e+02	4.412385e+02	4.371581e+02	4.656821e+02	4.388347e+02	4.357111e+02
					4.490205e+02	4.504354e+02	4.422653e+02	4.413563e+02	2.852363e+02	4.479636e+02	4.333858e+02	4.257134e+02	4.379513e+02
					7.924445e+02	7.964684e+02	8.480378e+02	7.600712e+02	6.830027e+02	7.895948e+02	7.167180e+02	6.886865e+02	5.152620e+02
					3.734652e+02	3.379575e+02	3.899193e+02	7.753048e+02	7.503463e+02	7.238867e+02	7.077392e+02	6.670833e+02	6.031711e+02
					6.443961e+02	6.624085e+02	3.231322e+02	3.449399e+02	2.635212e+02	3.594350e+02	3.911726e+02	4.683210e+02	3.191898e+02
					3.312426e+02	5.548681e+02	5.843016e+02	6.697984e+02	4.532425e+02	6.489553e+02	7.546991e+02	8.325395e+02	7.329226e+02
					4.015169e+02	4.093986e+02	3.965797e+02	3.991495e+02	4.035674e+02	7.332977e+02	7.330448e+02	7.354775e+02	1.000176e+03
					9.996233e+02	1.001078e+03	1.001081e+03	9.923630e+02	9.867191e+02	9.907405e+02	9.973938e+02	9.524194e+02	9.551099e+02
					9.632856e+02	9.587613e+02	8.418172e+02	8.097945e+02	8.670355e+02	8.430792e+02	1.001153e+03	9.919546e+02	9.862008e+02
					9.991364e+02	9.992017e+02	8.669693e+02	8.702302e+02	8.073472e+02	1.000131e+03	9.997107e+02	1.000935e+03	8.766061e+02
					8.945154e+02	8.523336e+02	2.657899e+02	5.172739e+02	4.241426e+02	9.294662e+02	9.682365e+02	9.151201e+02	6.108438e+02
					5.614101e+02	5.543624e+02	5.002205e+02	2.653121e+02	2.702488e+02	2.697515e+02	2.909899e+02	2.748468e+02	2.721858e+02
					4.059860e+02	3.720886e+02	3.927764e+02	3.915328e+02	2.683805e+02	2.631891e+02	2.949874e+02	2.917940e+02	1.725176e+02
					8.899840e+02	8.874197e+02	8.635391e+02	9.143205e+02	7.693316e+02	7.966248e+02	7.530564e+02	8.141391e+02	7.204489e+02
					6.142127e+02	3.483363e+02	2.000759e+02	3.645252e+02	3.802028e+02	8.429786e+02	8.110856e+02	8.094790e+02	8.685824e+02
					8.963522e+02	8.629291e+02	8.105254e+02	1.076468e+03	5.835438e+02	4.773137e+02	7.136829e+02	6.322676e+02	8.472944e+02
					8.873115e+02	7.068906e+02	7.327803e+02	6.548604e+02	8.766264e+02	2.883818e+02	4.889373e+02	3.679083e+02	7.012145e+02
					7.243207e+02	2.943193e+02	2.777809e+02	3.032593e+02	2.715772e+02	3.565705e+02	4.016244e+02	3.976299e+02	2.875735e+02
					2.906550e+02	2.524965e+02	2.619399e+02	2.786913e+02	3.032755e+02	2.728953e+02	3.927697e+02	3.872022e+02	4.320773e+02
					4.426649e+02	4.390541e+02	4.551158e+02	4.281768e+02	2.740225e+02	4.443778e+02	2.747313e+02	4.408664e+02	4.413146e+02
					4.514691e+02	3.164284e+02	2.748101e+02	2.793039e+02	2.650224e+02	2.732466e+02	2.856983e+02	2.987189e+02	4.019177e+02
					3.609317e+02	3.370344e+02	3.677375e+02	3.601434e+02	4.100314e+02	3.985946e+02	4.050510e+02	3.774273e+02	3.796930e+02
					3.434945e+02	9.788701e+02	1.001259e+03	9.969399e+02	1.002561e+03	8.596464e+02	8.047436e+02	7.527444e+02	8.343820e+02
					9.996128e+02	1.000764e+03	9.995682e+02	9.503394e+02	9.972263e+02	8.975256e+02	9.262512e+02	9.776261e+02	9.167698e+02
					9.378566e+02	8.970160e+02	9.666994e+02	9.526879e+02	9.660943e+02	9.995401e+02	9.959729e+02	1.000248e+03	1.002289e+03
					2.590335e+02	4.559064e+02	5.744930e+02	5.518219e+02	7.355393e+02	7.790020e+02	8.617340e+02	8.456707e+02	7.487370e+02
					3.184422e+02	3.366981e+02	3.200853e+02	3.001562e+02	9.476583e+02	8.811223e+02	7.854706e+02	8.017176e+02	1.000214e+03
					8.382471e+02	9.604423e+02	8.240608e+02	8.454173e+02	9.276258e+02	9.073033e+02	9.149499e+02	9.212363e+02	9.383674e+02
					9.555171e+02	9.393759e+02	9.771127e+02	9.924917e+02	9.790158e+02	9.757397e+02	1.000751e+03	9.929978e+02	9.831059e+02
					9.632517e+02	9.508016e+02	1.000085e+03	9.993548e+02	9.382685e+02	9.593790e+02	9.403430e+02	8.357453e+02	8.039438e+02
					8.395451e+02	8.673349e+02	7.367935e+02	7.093385e+02	6.580832e+02	6.943935e+02	7.955626e+02	8.311987e+02	8.447036e+02
					8.194804e+02	9.647645e+02	9.275023e+02	9.405142e+02	9.180826e+02	1.001953e+03	1.000685e+03	7.174997e+02	7.395786e+02
					9.297868e+02	9.367330e+02	9.305740e+02	9.999463e+02	1.001155e+03	9.948373e+02	9.858494e+02	9.197249e+02	9.033390e+02
					9.316636e+02	9.195587e+02	8.780671e+02	8.716528e+02	8.470486e+02	9.444984e+02	9.237926e+02	9.463913e+02	1.000829e+03
					1.001482e+03	1.001887e+03	1.002338e+03	9.948870e+02	9.863146e+02	9.942375e+02	1.000038e+03	1.001027e+03	9.983687e+02
					1.001466e+03	9.706724e+02	9.521064e+02	9.867519e+02	9.707540e+02	9.893829e+02	9.978327e+02	1.001837e+03	9.248800e+02
					7.685225e+02	7.501917e+02	8.479963e+02	6.168773e+02	5.920816e+02	6.610630e+02	6.018946e+02	5.350732e+02	3.717368e+02
					6.898517e+02	5.992881e+02	6.353309e+02	6.879356e+02	5.267440e+02	4.191940e+02	4.863192e+02	2.929188e+02	3.500299e+02
					3.047106e+02	4.181083e+02	2.703660e+02	3.314626e+02	3.486835e+02	2.679249e+02	3.086689e+02	4.107668e+02	2.212432e+02
					5.592230e+02	6.102173e+02	6.479701e+02	7.347919e+02	6.130773e+02	6.872253e+02	8.198796e+02	7.056288e+02	6.541467e+02
					8.449962e+02	8.892939e+02	7.104547e+02	8.101561e+02	7.567576e+02	7.819492e+02	7.827970e+02	7.499005e+02	7.351715e+02
					6.419392e+02	8.070692e+02	7.394667e+02	7.728732e+02	8.517063e+02	8.040418e+02	7.428619e+02	9.116445e+02	9.474005e+02
					8.233551e+02	8.988242e+02	7.383377e+02	8.273234e+02	7.498981e+02	7.903822e+02	8.448488e+02	9.870059e+02	9.956852e+02
					9.887422e+02	9.860444e+02	9.978983e+02	9.910115e+02	9.972126e+02	9.827884e+02	9.926199e+02	9.927163e+02	9.871746e+02
					9.965273e+02	9.997653e+02	9.988650e+02	9.983285e+02	9.969522e+02	9.982741e+02	1.000015e+03	9.996576e+02	1.002455e+03
					1.003214e+03	1.002579e+03	1.002608e+03	1.000146e+03	1.001913e+03	9.974772e+02	1.001250e+03	9.623660e+02	9.832106e+02
					1.002841e+03	1.000624e+03	1.002870e+03	1.002506e+03	1.001495e+03	1.002018e+03	9.993155e+02	1.001352e+03	9.390859e+02
					8.683266e+02	8.711978e+02	8.729000e+02	9.269445e+02	9.484163e+02	8.780351e+02	9.316199e+02	9.468007e+02	9.023950e+02
					8.688469e+02	9.287381e+02	9.095484e+02	9.480647e+02	9.364395e+02	9.277619e+02	9.718305e+02	9.972104e+02	9.575467e+02
					9.669221e+02	1.002274e+03	1.000496e+03	1.001776e+03	1.000482e+03	1.000795e+03	1.000144e+03	9.886845e+02	8.832692e+02
					8.766684e+02	8.958884e+02	9.069946e+02	8.898471e+02	7.592002e+02	8.222771e+02	8.090576e+02	7.667067e+02	7.980757e+02
					7.713866e+02	9.153081e+02	8.851695e+02	9.109106e+02	8.745968e+02	9.019101e+02	8.617474e+02	9.000781e+02	8.814547e+02
					8.756205e+02	8.867037e+02	8.651823e+02	8.368197e+02	7.903187e+02	8.282204e+02	7.695700e+02	8.376808e+02	8.228869e+02
					8.680439e+02	8.494679e+02	8.430732e+02	8.271116e+02	9.031668e+02	6.848126e+02	7.361768e+02	7.096960e+02	6.874334e+02
					5.819794e+02	6.652237e+02	6.397882e+02	7.236080e+02	7.973191e+02	7.421798e+02	8.005399e+02	7.660760e+02	7.652544e+02
					8.190891e+02	9.222629e+02	8.820797e+02	9.195890e+02	8.610307e+02	9.834155e+02	1.002676e+03	1.001809e+03	1.002806e+03
					1.002695e+03	1.002766e+03	1.000666e+03	9.971316e+02	1.001387e+03	1.000972e+03	9.997835e+02	1.000714e+03	9.864560e+02
					9.006821e+02	9.150065e+02	7.904931e+02	8.500958e+02	7.755785e+02	7.956224e+02	7.390663e+02	6.685874e+02	6.303945e+02
					6.452030e+02	6.882513e+02	7.438987e+02	6.701974e+02	7.446165e+02	9.259353e+02	8.924274e+02	8.723666e+02	8.086615e+02
					8.300075e+02	9.569450e+02	9.135926e+02	8.092250e+02	7.753460e+02	7.416228e+02	9.175101e+02	8.631799e+02	8.943578e+02
					9.174986e+02	8.658443e+02	8.891126e+02	9.465564e+02	9.765989e+02	9.824774e+02	9.707762e+02	9.504216e+02	9.608407e+02
					9.740232e+02	9.752285e+02	9.616764e+02	8.993108e+02	8.700096e+02	8.502185e+02	8.887304e+02	9.091723e+02	8.591277e+02
					8.980425e+02	1.000933e+03	1.002746e+03	1.001760e+03	9.694818e+02	8.863920e+02	8.832317e+02	1.001603e+03	1.002798e+03
					9.904160e+02	9.338871e+02	9.991016e+02	9.972240e+02	9.761706e+02	1.000605e+03	1.002505e+03	1.002768e+03	9.846253e+02
					9.896342e+02	9.988041e+02	9.995713e+02	1.002339e+03	9.470149e+02	9.709372e+02	9.641511e+02	9.763314e+02	9.920097e+02
					8.821642e+02	9.538220e+02	9.837547e+02	9.568935e+02	9.082762e+02	9.618124e+02	9.638297e+02	8.661227e+02	9.357139e+02
					8.743394e+02	9.491373e+02	9.694194e+02	9.522599e+02	8.816772e+02	9.057971e+02	8.385117e+02	8.729004e+02	9.940229e+02