<?xml version="1.0"?>

<!--
CSMP_Simulation
-->

<VTKFile type="UnstructuredGrid" version="1.0" byte_order="LittleEndian">
	<UnstructuredGrid>
		<Piece NumberOfPoints="2922" NumberOfCells="5619">
			<Points>
				<DataArray type="Float64" Name="Position" NumberOfComponents="3" format="ascii">
					1.062348e+04	-6.219427e+03	0.000000e+00	1.328123e+04	-3.388001e+03	0.000000e+00	6.533000e+03	-2.871000e+03	0.000000e+00	8.993999e+03	3.450022e+02	0.000000e+00
					6.434000e+03	-6.251000e+03	0.000000e+00	6.415000e+03	-1.312000e+03	0.000000e+00	8.891000e+03	-1.610000e+02	0.000000e+00	1.593372e+04	-6.223812e+03	0.000000e+00
					1.243124e+04	-5.182061e+03	0.000000e+00	1.180818e+04	-6.661451e+03	0.000000e+00	1.199040e+04	-6.569837e+03	0.000000e+00	1.186573e+04	-6.450233e+03	0.000000e+00
					1.224666e+04	-6.222517e+03	0.000000e+00	1.208180e+04	-6.360720e+03	0.000000e+00	1.135568e+04	-6.216921e+03	0.000000e+00	1.177466e+04	-5.800292e+03	0.000000e+00
					1.484109e+03	2.369937e+02	0.000000e+00	1.048845e+04	-4.576829e+03	0.000000e+00	5.088007e+03	2.164612e+02	0.000000e+00	1.616065e+04	6.885872e+02	0.000000e+00
					5.856588e+03	2.844799e+02	0.000000e+00	5.964146e+03	2.322470e+02	0.000000e+00	1.285384e+04	-8.473227e+03	0.000000e+00	6.554646e+03	2.976259e+02	0.000000e+00
					6.220259e+03	3.810972e+02	0.000000e+00	2.455667e+03	2.604214e+02	0.000000e+00	1.185441e+04	-8.594387e+03	0.000000e+00	8.953729e+02	2.424411e+02	0.000000e+00
					1.642061e+04	5.389531e+02	0.000000e+00	9.022812e+03	5.486281e+02	0.000000e+00	1.072547e+04	-4.265213e+03	0.000000e+00	1.596156e+04	-4.568462e+03	0.000000e+00
					1.049681e+04	-6.339904e+03	0.000000e+00	1.229884e+04	9.679014e+02	0.000000e+00	1.346081e+04	9.303555e+02	0.000000e+00	7.674576e+03	2.576962e+02	0.000000e+00
					8.121128e+03	2.577928e+02	0.000000e+00	8.390419e+03	2.530714e+02	0.000000e+00	1.759058e+04	3.107264e+02	0.000000e+00	1.283469e+04	-3.190105e+03	0.000000e+00
					1.310544e+04	-3.163050e+03	0.000000e+00	6.218396e+03	2.847346e+02	0.000000e+00	1.964998e+04	3.306567e+02	0.000000e+00	1.089832e+04	6.517557e+02	0.000000e+00
					9.482042e+03	5.002750e+02	0.000000e+00	1.461891e+04	-3.601876e+03	0.000000e+00	1.694475e+04	2.822433e+02	0.000000e+00	1.223129e+04	-8.439639e+03	0.000000e+00
					7.092101e+03	3.133630e+02	0.000000e+00	7.447673e+03	2.954910e+02	0.000000e+00	5.479449e+03	3.927924e+02	0.000000e+00	1.430834e+04	-8.440884e+03	0.000000e+00
					1.346187e+04	-3.101654e+03	0.000000e+00	1.466219e+04	5.912805e+02	0.000000e+00	1.431424e+04	6.995984e+02	0.000000e+00	1.198158e+04	-3.600157e+03	0.000000e+00
					1.519729e+04	6.008027e+02	0.000000e+00	1.732254e+04	2.914492e+02	0.000000e+00	1.847268e+04	5.552377e+02	0.000000e+00	1.373014e+04	-3.092539e+03	0.000000e+00
					1.598609e+04	-4.803680e+03	0.000000e+00	1.811668e+03	2.957238e+02	0.000000e+00	2.068111e+03	3.301681e+02	0.000000e+00	3.593477e+02	6.241832e-01	0.000000e+00
					1.315684e+04	9.290093e+02	0.000000e+00	9.757773e+03	6.136685e+02	0.000000e+00	1.013994e+04	6.394650e+02	0.000000e+00	9.949611e+03	7.276424e+02	0.000000e+00
					1.479179e+04	-3.977888e+03	0.000000e+00	1.474764e+04	-3.691732e+03	0.000000e+00	1.224233e+04	-3.775151e+03	0.000000e+00	1.235721e+04	-3.992361e+03	0.000000e+00
					1.239488e+04	-3.732875e+03	0.000000e+00	1.247959e+04	-3.889221e+03	0.000000e+00	1.489970e+04	-6.402044e+03	0.000000e+00	1.471371e+04	-6.063480e+03	0.000000e+00
					1.503558e+04	-6.243497e+03	0.000000e+00	1.463383e+04	-6.231790e+03	0.000000e+00	1.359516e+04	-6.370837e+03	0.000000e+00	1.336635e+04	-6.229341e+03	0.000000e+00
					1.486979e+04	-7.470250e+03	0.000000e+00	1.455711e+04	-7.489929e+03	0.000000e+00	1.120299e+04	-4.942350e+03	0.000000e+00	1.218357e+04	-7.531530e+03	0.000000e+00
					1.251446e+04	-7.480192e+03	0.000000e+00	1.240108e+04	-7.647510e+03	0.000000e+00	1.239322e+04	-7.293615e+03	0.000000e+00	1.368325e+04	-7.242141e+03	0.000000e+00
					1.217897e+04	-5.028812e+03	0.000000e+00	1.378964e+04	8.854108e+02	0.000000e+00	1.351945e+04	-3.856343e+03	0.000000e+00	1.333151e+04	-3.674419e+03	0.000000e+00
					1.350782e+04	-3.520236e+03	0.000000e+00	1.479244e+04	-4.909493e+03	0.000000e+00	1.380050e+04	-4.989557e+03	0.000000e+00	3.084262e+03	3.746820e+02	0.000000e+00
					3.006144e+03	2.572346e+02	0.000000e+00	1.252005e+03	2.691829e+02	0.000000e+00	1.642126e+03	2.829086e+02	0.000000e+00	8.235090e+03	4.169793e+02	0.000000e+00
					1.537108e+04	-5.728762e+03	0.000000e+00	1.550100e+04	-5.598568e+03	0.000000e+00	1.543359e+04	-5.440257e+03	0.000000e+00	1.516251e+04	-4.367050e+03	0.000000e+00
					1.542543e+04	-4.626431e+03	0.000000e+00	1.547978e+04	-4.435709e+03	0.000000e+00	1.421355e+04	-5.774419e+03	0.000000e+00	1.398427e+04	-5.607986e+03	0.000000e+00
					1.433859e+04	-5.644592e+03	0.000000e+00	1.422646e+04	-5.431404e+03	0.000000e+00	1.278519e+04	-5.034132e+03	0.000000e+00	1.297347e+04	-4.888217e+03	0.000000e+00
					1.308886e+04	-5.058455e+03	0.000000e+00	1.295570e+04	-5.179625e+03	0.000000e+00	1.371210e+04	-5.548806e+03	0.000000e+00	1.306586e+04	-5.417419e+03	0.000000e+00
					1.398961e+04	-5.001093e+03	0.000000e+00	1.423737e+04	-5.238687e+03	0.000000e+00	1.553662e+04	-5.035070e+03	0.000000e+00	1.541510e+04	-5.176839e+03	0.000000e+00
					1.433199e+04	-4.490070e+03	0.000000e+00	1.772795e+04	4.701005e+02	0.000000e+00	1.301714e+04	-3.340203e+03	0.000000e+00	1.291928e+04	-6.673458e+03	0.000000e+00
					1.305404e+04	-6.847013e+03	0.000000e+00	1.275393e+04	-6.763001e+03	0.000000e+00	1.299225e+04	-6.992535e+03	0.000000e+00	1.111766e+04	-6.671729e+03	0.000000e+00
					1.100675e+04	-6.816450e+03	0.000000e+00	1.117046e+04	-6.969377e+03	0.000000e+00	1.205000e+04	-8.078535e+03	0.000000e+00	1.184148e+04	-7.859306e+03	0.000000e+00
					1.196430e+04	-8.231484e+03	0.000000e+00	1.298170e+04	-7.885249e+03	0.000000e+00	1.295062e+04	-8.221395e+03	0.000000e+00	1.309178e+04	-8.017537e+03	0.000000e+00
					1.120470e+04	-5.453850e+03	0.000000e+00	1.115255e+04	-5.738876e+03	0.000000e+00	1.126426e+04	-5.604117e+03	0.000000e+00	1.184009e+04	-5.022972e+03	0.000000e+00
					1.172669e+04	-4.862486e+03	0.000000e+00	1.153323e+04	-4.959783e+03	0.000000e+00	1.175756e+04	-5.171477e+03	0.000000e+00	1.534244e+04	-6.934844e+03	0.000000e+00
					1.455437e+04	-8.098472e+03	0.000000e+00	1.476956e+04	-7.877258e+03	0.000000e+00	1.464624e+04	-8.340289e+03	0.000000e+00	1.404268e+04	-7.444684e+03	0.000000e+00
					1.421918e+04	-7.630822e+03	0.000000e+00	1.428388e+04	-7.472196e+03	0.000000e+00	1.526650e+04	-7.239097e+03	0.000000e+00	1.513630e+04	-7.368500e+03	0.000000e+00
					1.581589e+04	-5.652546e+03	0.000000e+00	1.296440e+04	-6.343040e+03	0.000000e+00	1.295470e+04	-6.059130e+03	0.000000e+00	1.303797e+04	-6.200013e+03	0.000000e+00
					1.273442e+04	-6.210589e+03	0.000000e+00	1.360396e+04	-6.962240e+03	0.000000e+00	1.362392e+04	-6.655270e+03	0.000000e+00	1.339020e+04	-6.812359e+03	0.000000e+00
					6.442692e+03	4.405175e+02	0.000000e+00	3.840145e+03	2.404374e+02	0.000000e+00	3.475756e+03	2.459832e+02	0.000000e+00	3.582548e+03	3.131050e+02	0.000000e+00
					1.179383e+04	-4.550717e+03	0.000000e+00	1.173986e+04	-5.484162e+03	0.000000e+00	1.062189e+04	-5.748233e+03	0.000000e+00	1.180024e+04	-3.998124e+03	0.000000e+00
					1.173389e+04	-3.844468e+03	0.000000e+00	1.197836e+04	-3.861204e+03	0.000000e+00	1.188099e+04	-3.736811e+03	0.000000e+00	1.137465e+04	-4.416604e+03	0.000000e+00
					1.124799e+04	-4.291994e+03	0.000000e+00	1.108948e+04	-4.439061e+03	0.000000e+00	1.120866e+04	-4.578218e+03	0.000000e+00	1.076080e+04	-6.185724e+03	0.000000e+00
					1.052158e+04	-6.171076e+03	0.000000e+00	1.061654e+04	-6.082875e+03	0.000000e+00	1.068627e+04	-6.344822e+03	0.000000e+00	1.547934e+04	-6.007495e+03	0.000000e+00
					1.239362e+04	-8.015408e+03	0.000000e+00	1.231714e+04	-8.236339e+03	0.000000e+00	1.259828e+04	-8.069267e+03	0.000000e+00	1.701531e+04	4.509240e+02	0.000000e+00
					1.277290e+04	-3.855596e+03	0.000000e+00	1.248342e+04	-4.291681e+03	0.000000e+00	1.951687e+04	4.566190e+02	0.000000e+00	1.409639e+04	-3.762137e+03	0.000000e+00
					1.395297e+04	-3.853813e+03	0.000000e+00	1.426096e+04	-3.882789e+03	0.000000e+00	1.412655e+04	-4.015160e+03	0.000000e+00	1.454529e+04	-4.454906e+03	0.000000e+00
					1.477335e+04	-4.577894e+03	0.000000e+00	1.473337e+04	-4.284850e+03	0.000000e+00	1.486818e+04	-4.392328e+03	0.000000e+00	1.182077e+04	-6.079763e+03	0.000000e+00
					1.161805e+04	-6.234353e+03	0.000000e+00	1.190807e+04	-6.249025e+03	0.000000e+00	1.174207e+04	-6.340720e+03	0.000000e+00	1.216930e+04	-5.632604e+03	0.000000e+00
					1.242431e+04	-5.486649e+03	0.000000e+00	1.241345e+04	-5.774949e+03	0.000000e+00	1.249642e+04	-5.631837e+03	0.000000e+00	1.225177e+04	-5.774741e+03	0.000000e+00
					1.257980e+04	-5.777980e+03	0.000000e+00	1.225809e+04	-5.482228e+03	0.000000e+00	1.256570e+04	-5.502870e+03	0.000000e+00	1.238428e+04	-6.062964e+03	0.000000e+00
					1.282796e+04	-5.599574e+03	0.000000e+00	1.196367e+04	-6.067125e+03	0.000000e+00	1.167268e+04	-6.097839e+03	0.000000e+00	1.277630e+04	-6.604007e+03	0.000000e+00
					1.500551e+04	-7.272801e+03	0.000000e+00	1.436310e+04	-7.629506e+03	0.000000e+00	1.405447e+04	-7.614436e+03	0.000000e+00	1.378616e+04	-7.311337e+03	0.000000e+00
					1.449798e+04	-7.361653e+03	0.000000e+00	1.450249e+04	-7.635568e+03	0.000000e+00	1.431253e+04	-7.811639e+03	0.000000e+00	1.414808e+04	-7.968868e+03	0.000000e+00
					1.487244e+04	-7.758708e+03	0.000000e+00	1.460617e+04	-7.765267e+03	0.000000e+00	1.424603e+04	-8.234521e+03	0.000000e+00	1.448709e+04	-7.900806e+03	0.000000e+00
					1.464000e+04	-7.940785e+03	0.000000e+00	1.490539e+04	-7.933881e+03	0.000000e+00	1.510985e+04	-7.219671e+03	0.000000e+00	1.487015e+04	-7.309580e+03	0.000000e+00
					1.490000e+04	-6.991785e+03	0.000000e+00	1.434632e+04	-7.340104e+03	0.000000e+00	1.461365e+04	-7.391157e+03	0.000000e+00	1.466017e+04	-7.113627e+03	0.000000e+00
					1.516388e+04	-7.108649e+03	0.000000e+00	1.519896e+04	-6.954921e+03	0.000000e+00	1.522463e+04	-6.802707e+03	0.000000e+00	1.504350e+04	-6.973318e+03	0.000000e+00
[...]
			<PointData Scalars="bulk fluid density">
				<DataArray type="Float64" Name="bulk fluid density" NumberOfComponents="1" format="ascii">
					1.959417e+02	8.798387e+02	9.428004e+02	9.819560e+02	5.759655e+02	9.890796e+02	8.566318e+02	1.956623e+02
					3.278794e+02	4.096067e+02	4.058913e+02	4.005886e+02	3.905427e+02	3.968026e+02	3.898571e+02	3.653961e+02	1.000002e+03
					3.530300e+02	9.710035e+02	9.993924e+02	9.411058e+02	9.295973e+02	3.193597e+02	9.592351e+02	9.865390e+02	9.998875e+02
					2.806721e+02	9.996266e+02	9.995355e+02	9.955205e+02	3.860534e+02	4.750373e+02	1.575085e+02	9.998755e+02	9.998130e+02
					9.892285e+02	9.871799e+02	9.931971e+02	1.000527e+03	7.036241e+02	4.310269e+02	9.652400e+02	1.000195e+03	9.992389e+02
					9.973268e+02	5.261262e+02	9.995094e+02	4.173158e+02	9.915121e+02	9.907134e+02	9.548209e+02	4.152432e+02	5.814339e+02
					9.997434e+02	9.998909e+02	9.569415e+02	9.991141e+02	1.000329e+03	9.999269e+02	6.214206e+02	3.490790e+02	9.999448e+02
					9.998661e+02	9.971293e+02	1.000067e+03	9.994252e+02	9.998474e+02	9.995889e+02	6.706796e+02	4.950985e+02	5.573717e+02
					5.403858e+02	5.604297e+02	5.415017e+02	3.990708e+02	3.830791e+02	3.919761e+02	3.914302e+02	3.976356e+02	3.911606e+02
					4.423929e+02	4.434116e+02	3.086912e+02	4.446681e+02	4.427876e+02	4.491030e+02	4.355728e+02	4.337710e+02	3.185019e+02
					9.996948e+02	5.357644e+02	5.249740e+02	6.877358e+02	5.103530e+02	3.168535e+02	9.993460e+02	9.997803e+02	9.997634e+02
					9.998860e+02	9.947453e+02	3.567214e+02	3.503024e+02	3.415217e+02	2.844217e+02	2.564887e+02	3.101364e+02	3.647144e+02
					3.543297e+02	3.566843e+02	3.435590e+02	3.191861e+02	3.105325e+02	3.207628e+02	3.279939e+02	3.505964e+02	3.424055e+02
					3.175936e+02	3.318780e+02	2.808009e+02	3.242885e+02	5.144947e+02	9.998385e+02	9.414812e+02	4.105144e+02	4.179626e+02
					4.142308e+02	4.238786e+02	4.094944e+02	4.076874e+02	4.181631e+02	4.466743e+02	4.404619e+02	3.340028e+02	4.579269e+02
					4.628344e+02	4.625044e+02	3.396079e+02	3.555810e+02	3.469792e+02	3.131071e+02	5.127657e+02	3.137111e+02	3.221053e+02
					4.204979e+02	4.518949e+02	4.396044e+02	3.161730e+02	4.416622e+02	4.487311e+02	4.427431e+02	4.283075e+02	4.359393e+02
					3.063956e+02	3.962751e+02	3.824167e+02	3.897012e+02	3.901388e+02	4.228124e+02	4.098841e+02	4.165010e+02	9.915006e+02
					1.000007e+03	9.997371e+02	9.995218e+02	5.364315e+02	3.457827e+02	1.775855e+02	5.615959e+02	8.974848e+02	6.604256e+02
					9.739706e+02	3.216063e+02	1.034462e+03	7.276221e+02	2.069898e+02	3.514852e+02	1.611386e+02	1.961839e+02	2.022174e+02
					3.739670e+02	4.605815e+02	4.424334e+02	4.629826e+02	9.994395e+02	5.339239e+02	4.981993e+02	9.996796e+02	6.776005e+02
					5.317239e+02	5.339272e+02	5.517980e+02	5.438646e+02	5.587940e+02	5.666397e+02	5.685751e+02	3.831573e+02	3.908623e+02
					3.915794e+02	3.957171e+02	3.551829e+02	3.463562e+02	3.641696e+02	3.552998e+02	3.640782e+02	3.644468e+02	3.459993e+02
					3.474035e+02	3.824242e+02	3.534607e+02	3.824133e+02	3.841304e+02	4.075667e+02	4.348125e+02	4.486837e+02	4.481040e+02
					4.364859e+02	4.384967e+02	4.488374e+02	4.552243e+02	4.598623e+02	4.454682e+02	4.521559e+02	4.430751e+02	4.573220e+02
					4.522598e+02	3.791568e+02	4.322731e+02	4.363834e+02	4.240061e+02	4.376541e+02	4.395904e+02	4.287410e+02	4.280938e+02
					4.225068e+02	4.161170e+02	4.233229e+02	3.945987e+02	3.962486e+02	3.963455e+02	4.021068e+02	4.084463e+02	9.993848e+02
					9.998570e+02	9.993004e+02	9.995352e+02	9.998090e+02	9.995309e+02	9.996546e+02	1.000035e+03	9.980032e+02	9.937687e+02
					2.280546e+02	3.654930e+02	5.052569e+02	5.516399e+02	5.335152e+02	5.078496e+02	5.659448e+02	3.513934e+02	3.641709e+02
					4.486314e+02	4.118754e+02	5.146227e+02	3.842764e+02	4.918084e+02	6.188745e+02	6.173343e+02	6.866351e+02	5.392299e+02
					5.222116e+02	5.319318e+02	5.451394e+02	5.441036e+02	5.321160e+02	5.429664e+02	5.224805e+02	5.406669e+02	5.596953e+02
					6.992897e+02	5.308108e+02	5.515659e+02	5.547514e+02	5.573964e+02	5.572376e+02	5.395676e+02	9.995774e+02	9.997515e+02
					9.998001e+02	4.632202e+02	3.025914e+02	3.104065e+02	9.719999e+02	5.277011e+02	5.120641e+02	5.231356e+02	5.443606e+02
					9.804257e+02	7.876213e+02	1.002874e+03	5.500767e+02	4.270109e+02	3.309211e+02	3.216046e+02	4.580620e+02	4.461872e+02
					4.578113e+02	4.574117e+02	4.586632e+02	3.792353e+02	3.063146e+02	4.148222e+02	4.116633e+02	3.589987e+02	3.723088e+02
					3.817674e+02	3.692656e+02	3.978210e+02	4.053485e+02	3.965322e+02	3.804417e+02	3.742855e+02	3.728683e+02	3.635330e+02
					3.836744e+02	3.985652e+02	4.071669e+02	3.989456e+02	1.716328e+02	1.503067e+02	2.129655e+02	2.701794e+02	2.650015e+02
					2.156184e+02	2.544571e+02	2.356820e+02	2.417596e+02	1.915245e+02	2.099375e+02	4.908566e+02	1.848884e+02	1.994350e+02
					2.028033e+02	2.795017e+02	6.737032e+02	5.738920e+02	5.727806e+02	5.691528e+02	7.958039e+02	7.808109e+02	8.890711e+02
					5.655278e+02	5.602052e+02	8.628568e+02	5.504674e+02	5.739377e+02	8.183459e+02	9.990660e+02	8.986156e+02	3.762826e+02
					1.517769e+02	1.651762e+02	3.484270e+02	3.098389e+02	2.990031e+02	5.309658e+02	5.327601e+02	5.051393e+02	5.452957e+02
					5.143304e+02	5.624786e+02	5.628451e+02	5.403664e+02	9.997235e+02	9.996517e+02	9.998369e+02	9.998159e+02	9.985485e+02
					9.335971e+02	9.826100e+02	9.647731e+02	9.584894e+02	9.678330e+02	4.589628e+02	4.215575e+02	3.824363e+02	3.796971e+02
					3.586871e+02	3.685880e+02	3.860279e+02	3.716231e+02	3.635221e+02	3.979422e+02	3.974379e+02	4.033674e+02	4.050547e+02
					4.085806e+02	3.822884e+02	3.827722e+02	3.622643e+02	3.627231e+02	3.726277e+02	3.622991e+02	3.951091e+02	3.980835e+02
					4.103372e+02	4.108835e+02	3.983419e+02	4.030272e+02	4.045941e+02	4.108525e+02	1.916163e+02	1.807088e+02	1.817753e+02
					1.930801e+02	3.891942e+02	3.271646e+02	3.777066e+02	1.632918e+02	1.493336e+02	2.447090e+02	1.826141e+02	2.027142e+02
					2.888225e+02	3.231463e+02	1.599377e+02	1.939116e+02	3.430766e+02	3.689837e+02	3.586629e+02	1.593458e+02	4.304440e+02
					4.457136e+02	4.182429e+02	4.107815e+02	4.098090e+02	2.942476e+02	3.620596e+02	2.128698e+02	4.077669e+02	4.044990e+02
					4.303632e+02	4.469668e+02	3.855048e+02	3.463040e+02	3.658758e+02	3.391784e+02	3.915083e+02	3.980676e+02	3.902428e+02
					8.269347e+02	3.835025e+02	3.990450e+02	3.912603e+02	3.999905e+02	3.827604e+02	3.888770e+02	3.612181e+02	4.122419e+02
					4.351848e+02	5.525468e+02	5.299797e+02	5.531479e+02	9.998018e+02	4.045702e+02	3.980966e+02	4.033409e+02	4.084911e+02
					3.945901e+02	3.763491e+02	4.017579e+02	4.136368e+02	2.524332e+02	4.289646e+02	4.366356e+02	4.241272e+02	4.273613e+02
					4.221028e+02	4.169879e+02	4.199299e+02	4.137410e+02	3.985237e+02	4.107162e+02	4.067633e+02	4.159857e+02	4.218794e+02
					4.274678e+02	4.137069e+02	4.363951e+02	4.332431e+02	4.249432e+02	3.253807e+02	3.263785e+02	3.375437e+02	3.433748e+02
					3.337513e+02	3.832589e+02	3.855559e+02	3.734197e+02	3.737417e+02	3.639774e+02	3.701793e+02	3.376963e+02	3.223297e+02
					3.159364e+02	2.573272e+02	5.603396e+02	3.033247e+02	3.396883e+02	2.800044e+02	3.088033e+02	2.990426e+02	3.282802e+02
					3.437579e+02	3.296329e+02	3.202312e+02	3.287262e+02	3.374127e+02	3.200453e+02	3.192718e+02	3.647277e+02	3.570554e+02
					3.610318e+02	3.645549e+02	3.756389e+02	3.713827e+02	3.361685e+02	3.196601e+02	3.557271e+02	3.402552e+02	3.258601e+02
					3.318360e+02	3.457257e+02	3.270775e+02	3.274414e+02	3.367272e+02	3.458231e+02	3.362156e+02	3.277279e+02	3.623106e+02
					3.719929e+02	3.661253e+02	3.874751e+02	3.731815e+02	3.808110e+02	3.692137e+02	3.854052e+02	3.779507e+02	3.816145e+02
					5.145481e+02	4.869742e+02	4.750911e+02	5.024448e+02	3.108678e+02	5.123099e+02	3.100208e+02	4.798194e+02	1.854632e+02
					4.051127e+02	3.654923e+02	1.857145e+02	4.022109e+02	3.497323e+02	3.931877e+02	2.701130e+02	4.124788e+02	4.239260e+02
					4.297142e+02	4.358786e+02	4.241934e+02	4.354631e+02	4.468206e+02	4.354113e+02	4.476867e+02	4.228793e+02	4.167754e+02
					4.239306e+02	4.173237e+02	4.114203e+02	4.104102e+02	4.236239e+02	4.473755e+02	4.594706e+02	4.542500e+02	4.479505e+02
					4.553929e+02	4.560619e+02	4.515299e+02	4.294502e+02	4.230812e+02	4.271600e+02	4.308089e+02	4.365283e+02	4.604663e+02
					4.549950e+02	4.619625e+02	4.614228e+02	4.590236e+02	3.177841e+02	4.368884e+02	4.559761e+02	3.402772e+02	4.579088e+02
					4.656143e+02	4.636894e+02	4.651672e+02	4.643577e+02	4.531682e+02	4.477811e+02	4.612330e+02	4.591527e+02	4.463380e+02
					4.578244e+02	4.491802e+02	4.458131e+02	4.485111e+02	4.255030e+02	4.349169e+02	4.319368e+02	4.276262e+02	4.243447e+02
					4.322436e+02	4.362645e+02	4.117354e+02	3.977534e+02	4.036390e+02	4.146934e+02	3.979115e+02	4.282730e+02	3.474766e+02
					4.433783e+02	4.444929e+02	4.441887e+02	3.598747e+02	3.525223e+02	3.184185e+02	4.174102e+02	4.188921e+02	4.112314e+02
					4.234586e+02	4.233415e+02	2.166708e+02	4.058567e+02	3.965181e+02	4.361604e+02	4.197948e+02	4.157805e+02	3.793865e+02
					4.566871e+02	4.440679e+02	4.553477e+02	4.503995e+02	4.561519e+02	4.434142e+02	4.308803e+02	4.359404e+02	4.246508e+02
					4.276525e+02	4.347493e+02	4.229734e+02	4.311817e+02	4.340064e+02	2.855964e+02	9.071228e+02	5.383373e+02	5.415117e+02
					1.019396e+03	9.996975e+02	8.329448e+02	9.994607e+02	9.997339e+02	9.995631e+02	9.995596e+02	9.994647e+02	1.004173e+03
					1.001914e+03	1.002384e+03	1.002696e+03	1.003828e+03	1.005010e+03	1.004981e+03	1.004470e+03	8.015995e+02	5.947054e+02
					5.075346e+02	5.281729e+02	9.996229e+02	1.003672e+03	1.005206e+03	1.000908e+03	9.998840e+02	5.215444e+02	5.052538e+02
					5.018283e+02	5.296109e+02	7.362033e+02	6.803561e+02	7.550381e+02	5.103772e+02	4.384102e+02	5.352077e+02	4.706327e+02
					5.104078e+02	4.829221e+02	4.959385e+02	5.160203e+02	4.970697e+02	4.487314e+02	4.113540e+02	2.885312e+02	3.380018e+02
					3.339346e+02	2.905670e+02	3.222197e+02	2.787524e+02	3.440711e+02	3.288348e+02	3.378726e+02	3.863946e+02	3.115184e+02
					4.827491e+02	4.860868e+02	3.807059e+02	4.712788e+02	4.593887e+02	4.773931e+02	2.944931e+02	4.864148e+02	4.660851e+02
					4.774592e+02	5.211742e+02	5.025788e+02	4.820684e+02	5.014257e+02	4.593574e+02	3.066038e+02	2.899221e+02	2.934423e+02
					3.109640e+02	2.970735e+02	3.395588e+02	3.246708e+02	3.829709e+02	3.630060e+02	3.435513e+02	3.272474e+02	4.682995e+02
					3.048628e+02	4.777441e+02	2.969778e+02	3.077165e+02	3.446548e+02	3.530645e+02	3.510796e+02	3.443846e+02	3.630758e+02
					3.838823e+02	3.360354e+02	3.440656e+02	3.252469e+02	3.354319e+02	3.236309e+02	3.282873e+02	3.438268e+02	3.263276e+02
					3.448990e+02	3.360921e+02	3.282869e+02	3.323839e+02	3.050863e+02	3.138652e+02	2.981693e+02	3.047838e+02	2.915180e+02
					3.088363e+02	3.136190e+02	3.190654e+02	3.115672e+02	3.372191e+02	3.469328e+02	3.453196e+02	3.445252e+02	3.503959e+02
					3.669016e+02	3.637024e+02	3.833589e+02	2.925613e+02	4.604792e+02	2.224742e+02	2.608677e+02	2.500186e+02	2.423714e+02
					3.464516e+02	3.601728e+02	3.514733e+02	3.428043e+02	3.561718e+02	3.160241e+02	2.549248e+02	3.405812e+02	2.774103e+02
					3.428520e+02	3.091807e+02	3.321634e+02	3.262949e+02	9.990706e+02	9.963322e+02	1.000147e+03	9.970942e+02	9.963723e+02
					9.963221e+02	9.997555e+02	9.993598e+02	9.996087e+02	9.983378e+02	9.942145e+02	9.948008e+02	9.994905e+02	9.995391e+02
					9.991063e+02	9.996824e+02	9.995631e+02	4.594706e+02	2.959395e+02	3.084416e+02	4.951643e+02	3.238293e+02	4.782769e+02
					3.272255e+02	3.194791e+02	3.161454e+02	3.301388e+02	3.439628e+02	3.234995e+02	3.364750e+02	3.270785e+02	3.285894e+02
					3.247834e+02	3.029270e+02	3.186716e+02	6.907479e+02	5.422052e+02	7.292531e+02	5.191931e+02	5.244199e+02	5.349874e+02
					5.013460e+02	5.354218e+02	5.374424e+02	5.212503e+02	5.239254e+02	5.011683e+02	9.994585e+02	4.526489e+02	4.573329e+02
					4.450686e+02	4.428870e+02	4.400486e+02	4.478043e+02	4.410122e+02	4.358620e+02	4.642834e+02	4.388352e+02	4.357039e+02
					4.489925e+02	4.504253e+02	4.422805e+02	4.412364e+02	2.334649e+02	4.477939e+02	4.333402e+02	4.256753e+02	4.378258e+02
					8.442501e+02	8.479561e+02	8.923824e+02	8.152535e+02	7.367854e+02	8.438108e+02	7.707199e+02	7.416460e+02	5.263606e+02
					3.821594e+02	3.475827e+02	3.910430e+02	8.286978e+02	8.047861e+02	7.785824e+02	7.624929e+02	7.186601e+02	6.496537e+02
					6.954828e+02	7.143881e+02	3.249628e+02	3.397011e+02	2.642382e+02	4.495983e+02	4.282432e+02	5.167183e+02	3.688177e+02
					3.593921e+02	6.071462e+02	6.318238e+02	7.265819e+02	4.764555e+02	7.117498e+02	8.089636e+02	8.804299e+02	7.934640e+02
					4.015111e+02	4.093764e+02	3.965636e+02	3.991426e+02	4.035602e+02	8.095608e+02	7.736168e+02	7.805904e+02	1.002066e+03
					1.002114e+03	1.003223e+03	1.002419e+03	9.992190e+02	9.961171e+02	9.978155e+02	1.001460e+03	9.513627e+02	9.524329e+02
					9.644670e+02	9.627674e+02	8.788207e+02	8.532022e+02	9.050488e+02	8.864684e+02	1.001142e+03	9.965781e+02	9.946342e+02
					9.992879e+02	1.003770e+03	9.053033e+02	9.076814e+02	8.617330e+02	1.000133e+03	9.997119e+02	1.000940e+03	8.726053e+02
					8.865948e+02	8.560099e+02	5.237904e+02	9.537433e+02	5.366289e+02	9.483744e+02	9.773056e+02	9.404709e+02	6.581455e+02
					6.033109e+02	5.943469e+02	5.317007e+02	2.657034e+02	2.709986e+02	2.704203e+02	2.904514e+02	2.772639e+02	2.747166e+02
					4.059016e+02	3.719562e+02	3.926223e+02	3.914299e+02	2.689730e+02	2.638392e+02	2.940666e+02	2.934274e+02	1.938589e+02
					9.355088e+02	9.310933e+02	9.128938e+02	9.536709e+02	7.572388e+02	8.068592e+02	7.500477e+02	8.156624e+02	7.622419e+02
					6.913185e+02	4.911003e+02	2.729892e+02	2.923730e+02	5.195413e+02	8.546711e+02	8.247425e+02	8.255800e+02	8.669302e+02
					9.002253e+02	8.685238e+02	3.279225e+02	7.915799e+02	6.114258e+02	5.719270e+02	7.404868e+02	6.748255e+02	8.437396e+02
					8.929491e+02	7.398572e+02	7.587169e+02	6.753748e+02	9.148373e+02	2.966150e+02	5.153784e+02	3.779524e+02	7.301153e+02
					7.509208e+02	2.952569e+02	2.799233e+02	3.083136e+02	2.736577e+02	3.573258e+02	3.969469e+02	3.905552e+02	2.873320e+02
					2.902427e+02	2.453576e+02	2.529406e+02	2.792614e+02	3.032622e+02	2.734785e+02	3.927074e+02	3.791922e+02	4.319768e+02
					4.426707e+02	4.390562e+02	4.550741e+02	4.281998e+02	2.764187e+02	4.387327e+02	2.778990e+02	4.402197e+02	4.413254e+02
					4.514681e+02	3.148445e+02	2.747709e+02	2.798450e+02	2.646154e+02	2.725060e+02	2.791755e+02	2.883197e+02	3.944956e+02
					3.687970e+02	3.440401e+02	3.609956e+02	3.626059e+02	3.995444e+02	3.950634e+02	4.130903e+02	3.926501e+02	3.924443e+02
					3.588506e+02	9.830291e+02	1.001645e+03	9.980765e+02	1.002690e+03	8.434051e+02	7.774467e+02	7.333163e+02	8.195667e+02
					9.996138e+02	1.000769e+03	9.995694e+02	9.600701e+02	9.981168e+02	9.160057e+02	9.385973e+02	9.839867e+02	9.422177e+02
					9.569172e+02	9.295413e+02	9.833860e+02	9.755775e+02	9.854447e+02	1.000515e+03	9.981126e+02	1.000673e+03	1.002501e+03
					5.209525e+02	5.378295e+02	7.401282e+02	7.209525e+02	8.214647e+02	8.558439e+02	9.095406e+02	8.961170e+02	8.325432e+02
					3.156813e+02	3.337872e+02	3.177740e+02	3.000659e+02	9.537164e+02	8.983353e+02	8.155863e+02	8.299921e+02	1.000297e+03
					8.927174e+02	9.543716e+02	8.457681e+02	8.496169e+02	9.489199e+02	9.280363e+02	9.298543e+02	9.554410e+02	9.684373e+02
					9.787192e+02	9.671734e+02	9.776538e+02	9.940769e+02	9.798839e+02	9.835098e+02	1.002753e+03	9.998021e+02	9.951763e+02
					9.672300e+02	9.601817e+02	9.981542e+02	9.979580e+02	9.621397e+02	9.789438e+02	9.677060e+02	8.850059e+02	8.538327e+02
					8.874692e+02	9.134443e+02	7.778243e+02	7.459755e+02	6.961020e+02	7.358847e+02	8.253403e+02	8.642177e+02	8.722022e+02
					8.421394e+02	9.852385e+02	9.613982e+02	9.698886e+02	9.545404e+02	1.001972e+03	1.000687e+03	7.639628e+02	7.878091e+02
					9.351380e+02	9.616249e+02	9.526675e+02	9.999534e+02	1.001183e+03	9.948413e+02	9.848866e+02	9.313015e+02	9.197619e+02
					9.450736e+02	9.370699e+02	8.903046e+02	9.189600e+02	8.686292e+02	9.451459e+02	9.206675e+02	9.440675e+02	1.000927e+03
					1.001806e+03	1.002771e+03	1.002516e+03	9.971035e+02	9.922489e+02	9.987026e+02	1.000381e+03	1.002010e+03	1.002883e+03
					1.004009e+03	9.833487e+02	9.687545e+02	9.939410e+02	9.812488e+02	9.928612e+02	9.999272e+02	1.001969e+03	9.420413e+02
					7.906597e+02	7.694103e+02	8.929626e+02	5.629199e+02	4.754435e+02	6.187582e+02	6.163806e+02	5.312520e+02	3.478158e+02
					7.073745e+02	6.167578e+02	6.564905e+02	7.086790e+02	5.337224e+02	3.972151e+02	4.840190e+02	2.720155e+02	3.209440e+02
					2.870934e+02	3.922915e+02	2.569931e+02	3.264183e+02	3.277222e+02	2.712974e+02	2.918455e+02	4.034788e+02	2.248661e+02
					5.322972e+02	6.461165e+02	6.904594e+02	5.575631e+02	5.571832e+02	7.244370e+02	4.494458e+02	7.609924e+02	6.567496e+02
					8.891859e+02	9.244195e+02	7.796534e+02	8.620945e+02	8.106912e+02	8.310067e+02	8.227292e+02	8.152780e+02	7.870035e+02
					5.895600e+02	7.899522e+02	7.783408e+02	7.654941e+02	8.228356e+02	7.603557e+02	6.933959e+02	9.314092e+02	9.595770e+02
					8.647969e+02	9.203365e+02	8.085285e+02	8.577986e+02	7.969942e+02	8.179925e+02	8.805254e+02	9.912928e+02	9.981370e+02
					9.943864e+02	9.943286e+02	1.000175e+03	9.946477e+02	1.000191e+03	9.891770e+02	9.994055e+02	9.982973e+02	9.957169e+02
					9.988724e+02	1.001179e+03	1.000299e+03	1.000220e+03	9.990809e+02	1.002316e+03	1.000984e+03	1.000157e+03	1.002938e+03
					1.004638e+03	1.004004e+03	1.003532e+03	1.002502e+03	1.002570e+03	1.001612e+03	1.002812e+03	9.653341e+02	9.913468e+02
					1.002999e+03	1.002370e+03	1.003185e+03	1.003175e+03	1.002617e+03	1.002162e+03	1.001984e+03	1.002944e+03	9.443441e+02
					8.806925e+02	8.894419e+02	8.944793e+02	9.346048e+02	9.487471e+02	8.966074e+02	9.406587e+02	9.622838e+02	9.224827e+02
					8.870038e+02	9.403818e+02	9.228664e+02	9.662599e+02	9.516384e+02	9.241029e+02	9.699560e+02	9.979109e+02	9.562705e+02
					9.651547e+02	1.002357e+03	1.000499e+03	1.001794e+03	1.000723e+03	1.000799e+03	1.000150e+03	9.878936e+02	8.991338e+02
					8.895379e+02	9.091619e+02	9.182022e+02	9.005728e+02	7.898651e+02	8.485621e+02	8.310877e+02	7.931333e+02	8.292204e+02
					7.924726e+02	9.393668e+02	9.051037e+02	9.325274e+02	8.990931e+02	9.267362e+02	8.832158e+02	9.322133e+02	9.127495e+02
					9.109953e+02	9.137042e+02	8.942721e+02	8.588867e+02	8.300100e+02	8.633161e+02	8.053236e+02	8.683399e+02	8.629976e+02
					9.070760e+02	8.873823e+02	8.872379e+02	8.702291e+02	9.122036e+02	7.295104e+02	7.848837e+02	7.565786e+02	7.337085e+02
					6.218703e+02	7.098890e+02	6.820550e+02	7.716433e+02	8.466581e+02	7.901972e+02	8.507709e+02	8.158505e+02	8.051464e+02
					8.644206e+02	9.499894e+02	9.216791e+02	9.506858e+02	9.028039e+02	9.851266e+02	1.002787e+03	1.002825e+03	1.003061e+03
					1.002800e+03	1.003392e+03	1.000668e+03	9.983414e+02	1.002233e+03	1.000979e+03	9.997840e+02	1.000736e+03	9.908047e+02
					9.031004e+02	9.514751e+02	8.135849e+02	8.720730e+02	8.115385e+02	8.292511e+02	7.713388e+02	7.111046e+02	6.627874e+02
					6.846819e+02	7.260188e+02	7.810587e+02	7.031865e+02	7.916604e+02	9.587709e+02	9.342272e+02	9.167944e+02	8.569139e+02
					8.783676e+02	9.748252e+02	9.478453e+02	8.552266e+02	8.243304e+02	7.863214e+02	9.466362e+02	8.933330e+02	9.265360e+02
					9.437612e+02	8.996052e+02	9.182831e+02	9.741959e+02	9.906645e+02	9.943196e+02	9.886525e+02	9.765890e+02	9.824920e+02
					9.902718e+02	9.898887e+02	9.820905e+02	9.403136e+02	9.160178e+02	8.980684e+02	9.305097e+02	9.475093e+02	9.051794e+02
					9.245676e+02	1.000737e+03	1.002572e+03	1.001743e+03	9.715175e+02	9.157110e+02	9.116612e+02	1.000656e+03	1.002797e+03
					9.903860e+02	9.473156e+02	9.985054e+02	9.972408e+02	9.774137e+02	1.002243e+03	1.003130e+03	1.002498e+03	9.957580e+02
					9.981240e+02	1.002128e+03	1.002251e+03	1.002445e+03	9.674285e+02	9.834322e+02	9.745320e+02	9.811093e+02	9.917709e+02
					9.222416e+02	9.733161e+02	9.893180e+02	9.771202e+02	9.435852e+02	9.811394e+02	9.843247e+02	9.096349e+02	9.450493e+02
					8.866902e+02	9.620700e+02	9.775175e+02	9.684736e+02	9.011151e+02	9.306316e+02	8.459908e+02	9.358862e+02	9.932836e+02