<?xml version="1.0"?>

<!--
CSMP_Simulation
-->

<VTKFile type="UnstructuredGrid" version="1.0" byte_order="LittleEndian">
	<UnstructuredGrid>
		<Piece NumberOfPoints="2922" NumberOfCells="5619">
			<Points>
				<DataArray type="Float64" Name="Position" NumberOfComponents="3" format="ascii">
					1.062348e+04	-6.219427e+03	0.000000e+00	1.328123e+04	-3.388001e+03	0.000000e+00	6.533000e+03	-2.871000e+03	0.000000e+00	8.993999e+03	3.450022e+02	0.000000e+00
					6.434000e+03	-6.251000e+03	0.000000e+00	6.415000e+03	-1.312000e+03	0.000000e+00	8.891000e+03	-1.610000e+02	0.000000e+00	1.593372e+04	-6.223812e+03	0.000000e+00
					1.243124e+04	-5.182061e+03	0.000000e+00	1.180818e+04	-6.661451e+03	0.000000e+00	1.199040e+04	-6.569837e+03	0.000000e+00	1.186573e+04	-6.450233e+03	0.000000e+00
					1.224666e+04	-6.222517e+03	0.000000e+00	1.208180e+04	-6.360720e+03	0.000000e+00	1.135568e+04	-6.216921e+03	0.000000e+00	1.177466e+04	-5.800292e+03	0.000000e+00
					1.484109e+03	2.369937e+02	0.000000e+00	1.048845e+04	-4.576829e+03	0.000000e+00	5.088007e+03	2.164612e+02	0.000000e+00	1.616065e+04	6.885872e+02	0.000000e+00
					5.856588e+03	2.844799e+02	0.000000e+00	5.964146e+03	2.322470e+02	0.000000e+00	1.285384e+04	-8.473227e+03	0.000000e+00	6.554646e+03	2.976259e+02	0.000000e+00
					6.220259e+03	3.810972e+02	0.000000e+00	2.455667e+03	2.604214e+02	0.000000e+00	1.185441e+04	-8.594387e+03	0.000000e+00	8.953729e+02	2.424411e+02	0.000000e+00
					1.642061e+04	5.389531e+02	0.000000e+00	9.022812e+03	5.486281e+02	0.000000e+00	1.072547e+04	-4.265213e+03	0.000000e+00	1.596156e+04	-4.568462e+03	0.000000e+00
					1.049681e+04	-6.339904e+03	0.000000e+00	1.229884e+04	9.679014e+02	0.000000e+00	1.346081e+04	9.303555e+02	0.000000e+00	7.674576e+03	2.576962e+02	0.000000e+00
					8.121128e+03	2.577928e+02	0.000000e+00	8.390419e+03	2.530714e+02	0.000000e+00	1.759058e+04	3.107264e+02	0.000000e+00	1.283469e+04	-3.190105e+03	0.000000e+00
					1.310544e+04	-3.163050e+03	0.000000e+00	6.218396e+03	2.847346e+02	0.000000e+00	1.964998e+04	3.306567e+02	0.000000e+00	1.089832e+04	6.517557e+02	0.000000e+00
					9.482042e+03	5.002750e+02	0.000000e+00	1.461891e+04	-3.601876e+03	0.000000e+00	1.694475e+04	2.822433e+02	0.000000e+00	1.223129e+04	-8.439639e+03	0.000000e+00
					7.092101e+03	3.133630e+02	0.000000e+00	7.447673e+03	2.954910e+02	0.000000e+00	5.479449e+03	3.927924e+02	0.000000e+00	1.430834e+04	-8.440884e+03	0.000000e+00
					1.346187e+04	-3.101654e+03	0.000000e+00	1.466219e+04	5.912805e+02	0.000000e+00	1.431424e+04	6.995984e+02	0.000000e+00	1.198158e+04	-3.600157e+03	0.000000e+00
					1.519729e+04	6.008027e+02	0.000000e+00	1.732254e+04	2.914492e+02	0.000000e+00	1.847268e+04	5.552377e+02	0.000000e+00	1.373014e+04	-3.092539e+03	0.000000e+00
					1.598609e+04	-4.803680e+03	0.000000e+00	1.811668e+03	2.957238e+02	0.000000e+00	2.068111e+03	3.301681e+02	0.000000e+00	3.593477e+02	6.241832e-01	0.000000e+00
					1.315684e+04	9.290093e+02	0.000000e+00	9.757773e+03	6.136685e+02	0.000000e+00	1.013994e+04	6.394650e+02	0.000000e+00	9.949611e+03	7.276424e+02	0.000000e+00
					1.479179e+04	-3.977888e+03	0.000000e+00	1.474764e+04	-3.691732e+03	0.000000e+00	1.224233e+04	-3.775151e+03	0.000000e+00	1.235721e+04	-3.992361e+03	0.000000e+00
					1.239488e+04	-3.732875e+03	0.000000e+00	1.247959e+04	-3.889221e+03	0.000000e+00	1.489970e+04	-6.402044e+03	0.000000e+00	1.471371e+04	-6.063480e+03	0.000000e+00
					1.503558e+04	-6.243497e+03	0.000000e+00	1.463383e+04	-6.231790e+03	0.000000e+00	1.359516e+04	-6.370837e+03	0.000000e+00	1.336635e+04	-6.229341e+03	0.000000e+00
					1.486979e+04	-7.470250e+03	0.000000e+00	1.455711e+04	-7.489929e+03	0.000000e+00	1.120299e+04	-4.942350e+03	0.000000e+00	1.218357e+04	-7.531530e+03	0.000000e+00
					1.251446e+04	-7.480192e+03	0.000000e+00	1.240108e+04	-7.647510e+03	0.000000e+00	1.239322e+04	-7.293615e+03	0.000000e+00	1.368325e+04	-7.242141e+03	0.000000e+00
					1.217897e+04	-5.028812e+03	0.000000e+00	1.378964e+04	8.854108e+02	0.000000e+00	1.351945e+04	-3.856343e+03	0.000000e+00	1.333151e+04	-3.674419e+03	0.000000e+00
					1.350782e+04	-3.520236e+03	0.000000e+00	1.479244e+04	-4.909493e+03	0.000000e+00	1.380050e+04	-4.989557e+03	0.000000e+00	3.084262e+03	3.746820e+02	0.000000e+00
					3.006144e+03	2.572346e+02	0.000000e+00	1.252005e+03	2.691829e+02	0.000000e+00	1.642126e+03	2.829086e+02	0.000000e+00	8.235090e+03	4.169793e+02	0.000000e+00
					1.537108e+04	-5.728762e+03	0.000000e+00	1.550100e+04	-5.598568e+03	0.000000e+00	1.543359e+04	-5.440257e+03	0.000000e+00	1.516251e+04	-4.367050e+03	0.000000e+00
					1.542543e+04	-4.626431e+03	0.000000e+00	1.547978e+04	-4.435709e+03	0.000000e+00	1.421355e+04	-5.774419e+03	0.000000e+00	1.398427e+04	-5.607986e+03	0.000000e+00
					1.433859e+04	-5.644592e+03	0.000000e+00	1.422646e+04	-5.431404e+03	0.000000e+00	1.278519e+04	-5.034132e+03	0.000000e+00	1.297347e+04	-4.888217e+03	0.000000e+00
					1.308886e+04	-5.058455e+03	0.000000e+00	1.295570e+04	-5.179625e+03	0.000000e+00	1.371210e+04	-5.548806e+03	0.000000e+00	1.306586e+04	-5.417419e+03	0.000000e+00
					1.398961e+04	-5.001093e+03	0.000000e+00	1.423737e+04	-5.238687e+03	0.000000e+00	1.553662e+04	-5.035070e+03	0.000000e+00	1.541510e+04	-5.176839e+03	0.000000e+00
					1.433199e+04	-4.490070e+03	0.000000e+00	1.772795e+04	4.701005e+02	0.000000e+00	1.301714e+04	-3.340203e+03	0.000000e+00	1.291928e+04	-6.673458e+03	0.000000e+00
					1.305404e+04	-6.847013e+03	0.000000e+00	1.275393e+04	-6.763001e+03	0.000000e+00	1.299225e+04	-6.992535e+03	0.000000e+00	1.111766e+04	-6.671729e+03	0.000000e+00
					1.100675e+04	-6.816450e+03	0.000000e+00	1.117046e+04	-6.969377e+03	0.000000e+00	1.205000e+04	-8.078535e+03	0.000000e+00	1.184148e+04	-7.859306e+03	0.000000e+00
					1.196430e+04	-8.231484e+03	0.000000e+00	1.298170e+04	-7.885249e+03	0.000000e+00	1.295062e+04	-8.221395e+03	0.000000e+00	1.309178e+04	-8.017537e+03	0.000000e+00
					1.120470e+04	-5.453850e+03	0.000000e+00	1.115255e+04	-5.738876e+03	0.000000e+00	1.126426e+04	-5.604117e+03	0.000000e+00	1.184009e+04	-5.022972e+03	0.000000e+00
					1.172669e+04	-4.862486e+03	0.000000e+00	1.153323e+04	-4.959783e+03	0.000000e+00	1.175756e+04	-5.171477e+03	0.000000e+00	1.534244e+04	-6.934844e+03	0.000000e+00
					1.455437e+04	-8.098472e+03	0.000000e+00	1.476956e+04	-7.877258e+03	0.000000e+00	1.464624e+04	-8.340289e+03	0.000000e+00	1.404268e+04	-7.444684e+03	0.000000e+00
					1.421918e+04	-7.630822e+03	0.000000e+00	1.428388e+04	-7.472196e+03	0.000000e+00	1.526650e+04	-7.239097e+03	0.000000e+00	1.513630e+04	-7.368500e+03	0.000000e+00
					1.581589e+04	-5.652546e+03	0.000000e+00	1.296440e+04	-6.343040e+03	0.000000e+00	1.295470e+04	-6.059130e+03	0.000000e+00	1.303797e+04	-6.200013e+03	0.000000e+00
					1.273442e+04	-6.210589e+03	0.000000e+00	1.360396e+04	-6.962240e+03	0.000000e+00	1.362392e+04	-6.655270e+03	0.000000e+00	1.339020e+04	-6.812359e+03	0.000000e+00
					6.442692e+03	4.405175e+02	0.000000e+00	3.840145e+03	2.404374e+02	0.000000e+00	3.475756e+03	2.459832e+02	0.000000e+00	3.582548e+03	3.131050e+02	0.000000e+00
					1.179383e+04	-4.550717e+03	0.000000e+00	1.173986e+04	-5.484162e+03	0.000000e+00	1.062189e+04	-5.748233e+03	0.000000e+00	1.180024e+04	-3.998124e+03	0.000000e+00
					1.173389e+04	-3.844468e+03	0.000000e+00	1.197836e+04	-3.861204e+03	0.000000e+00	1.188099e+04	-3.736811e+03	0.000000e+00	1.137465e+04	-4.416604e+03	0.000000e+00
					1.124799e+04	-4.291994e+03	0.000000e+00	1.108948e+04	-4.439061e+03	0.000000e+00	1.120866e+04	-4.578218e+03	0.000000e+00	1.076080e+04	-6.185724e+03	0.000000e+00
					1.052158e+04	-6.171076e+03	0.000000e+00	1.061654e+04	-6.082875e+03	0.000000e+00	1.068627e+04	-6.344822e+03	0.000000e+00	1.547934e+04	-6.007495e+03	0.000000e+00
					1.239362e+04	-8.015408e+03	0.000000e+00	1.231714e+04	-8.236339e+03	0.000000e+00	1.259828e+04	-8.069267e+03	0.000000e+00	1.701531e+04	4.509240e+02	0.000000e+00
					1.277290e+04	-3.855596e+03	0.000000e+00	1.248342e+04	-4.291681e+03	0.000000e+00	1.951687e+04	4.566190e+02	0.000000e+00	1.409639e+04	-3.762137e+03	0.000000e+00
					1.395297e+04	-3.853813e+03	0.000000e+00	1.426096e+04	-3.882789e+03	0.000000e+00	1.412655e+04	-4.015160e+03	0.000000e+00	1.454529e+04	-4.454906e+03	0.000000e+00
					1.477335e+04	-4.577894e+03	0.000000e+00	1.473337e+04	-4.284850e+03	0.000000e+00	1.486818e+04	-4.392328e+03	0.000000e+00	1.182077e+04	-6.079763e+03	0.000000e+00
					1.161805e+04	-6.234353e+03	0.000000e+00	1.190807e+04	-6.249025e+03	0.000000e+00	1.174207e+04	-6.340720e+03	0.000000e+00	1.216930e+04	-5.632604e+03	0.000000e+00
					1.242431e+04	-5.486649e+03	0.000000e+00	1.241345e+04	-5.774949e+03	0.000000e+00	1.249642e+04	-5.631837e+03	0.000000e+00	1.225177e+04	-5.774741e+03	0.000000e+00
					1.257980e+04	-5.777980e+03	0.000000e+00	1.225809e+04	-5.482228e+03	0.000000e+00	1.256570e+04	-5.502870e+03	0.000000e+00	1.238428e+04	-6.062964e+03	0.000000e+00
					1.282796e+04	-5.599574e+03	0.000000e+00	1.196367e+04	-6.067125e+03	0.000000e+00	1.167268e+04	-6.097839e+03	0.000000e+00	1.277630e+04	-6.604007e+03	0.000000e+00
					1.500551e+04	-7.272801e+03	0.000000e+00	1.436310e+04	-7.629506e+03	0.000000e+00	1.405447e+04	-7.614436e+03	0.000000e+00	1.378616e+04	-7.311337e+03	0.000000e+00
					1.449798e+04	-7.361653e+03	0.000000e+00	1.450249e+04	-7.635568e+03	0.000000e+00	1.431253e+04	-7.811639e+03	0.000000e+00	1.414808e+04	-7.968868e+03	0.000000e+00
					1.487244e+04	-7.758708e+03	0.000000e+00	1.460617e+04	-7.765267e+03	0.000000e+00	1.424603e+04	-8.234521e+03	0.000000e+00	1.448709e+04	-7.900806e+03	0.000000e+00
					1.464000e+04	-7.940785e+03	0.000000e+00	1.490539e+04	-7.933881e+03	0.000000e+00	1.510985e+04	-7.219671e+03	0.000000e+00	1.487015e+04	-7.309580e+03	0.000000e+00
					1.490000e+04	-6.991785e+03	0.000000e+00	1.434632e+04	-7.340104e+03	0.000000e+00	1.461365e+04	-7.391157e+03	0.000000e+00	1.466017e+04	-7.113627e+03	0.000000e+00
					1.516388e+04	-7.108649e+03	0.000000e+00	1.519896e+04	-6.954921e+03	0.000000e+00	1.522463e+04	-6.802707e+03	0.000000e+00	1.504350e+04	-6.973318e+03	0.000000e+00
[...]
			<PointData Scalars="bulk fluid density">
				<DataArray type="Float64" Name="bulk fluid density" NumberOfComponents="1" format="ascii">
					2.813722e+02	7.558081e+02	9.728003e+02	9.876944e+02	7.168479e+02	9.904896e+02	9.163393e+02	4.113651e+02
					5.850480e+02	5.894764e+02	5.874441e+02	5.974347e+02	5.966901e+02	5.947624e+02	6.061893e+02	6.147779e+02	1.000003e+03
					6.252479e+02	9.908335e+02	9.993942e+02	9.742364e+02	9.714781e+02	3.352481e+02	9.794875e+02	9.931783e+02	9.998894e+02
					2.875520e+02	9.996278e+02	9.996094e+02	9.965982e+02	6.582450e+02	7.692700e+02	2.512561e+02	9.998786e+02	9.998166e+02
					9.904694e+02	9.875001e+02	9.952819e+02	1.000538e+03	7.472784e+02	7.778665e+02	9.833282e+02	1.000205e+03	9.995032e+02
					9.980899e+02	8.326587e+02	9.999351e+02	3.999270e+02	9.951279e+02	9.934201e+02	9.773312e+02	3.981294e+02	8.177978e+02
					9.998820e+02	9.999048e+02	6.420866e+02	9.994325e+02	1.000403e+03	9.999278e+02	8.395569e+02	7.190754e+02	9.999459e+02
					9.998671e+02	9.978795e+02	1.000071e+03	9.995617e+02	9.998961e+02	9.996060e+02	7.798258e+02	8.286157e+02	6.556610e+02
					6.808041e+02	6.362509e+02	6.256389e+02	6.172568e+02	6.202986e+02	6.206042e+02	6.161085e+02	5.775194e+02	5.835722e+02
					4.379200e+02	4.427340e+02	6.094097e+02	4.441414e+02	4.424357e+02	4.485520e+02	4.351577e+02	4.336193e+02	5.291830e+02
					9.996986e+02	6.807044e+02	7.013103e+02	7.495032e+02	5.483652e+02	5.318698e+02	9.993466e+02	9.997831e+02	9.997644e+02
					9.998872e+02	9.959139e+02	5.680069e+02	5.820564e+02	6.277004e+02	7.333550e+02	6.986280e+02	7.505766e+02	6.158056e+02
					6.125736e+02	6.123773e+02	5.901139e+02	5.533998e+02	4.816201e+02	5.520644e+02	5.879705e+02	6.102847e+02	6.074049e+02
					5.456417e+02	5.405412e+02	6.005798e+02	5.415254e+02	6.061781e+02	9.998412e+02	7.393445e+02	5.561654e+02	4.202212e+02
					5.537013e+02	4.243193e+02	4.021733e+02	3.917109e+02	4.109717e+02	4.334354e+02	4.352245e+02	3.367048e+02	4.574762e+02
					4.527419e+02	4.605073e+02	5.259433e+02	5.552512e+02	5.575922e+02	4.889690e+02	5.929176e+02	5.682759e+02	5.350042e+02
					4.130940e+02	4.375097e+02	4.384701e+02	3.240867e+02	4.414174e+02	4.482731e+02	4.423792e+02	4.194707e+02	4.300287e+02
					4.472026e+02	5.757750e+02	5.933099e+02	5.844378e+02	5.866004e+02	4.237177e+02	5.574558e+02	4.205736e+02	9.953168e+02
					1.000012e+03	9.997459e+02	9.995238e+02	6.097349e+02	6.004538e+02	3.678160e+02	5.869465e+02	5.995915e+02	6.650549e+02
					6.138892e+02	5.254223e+02	5.716145e+02	5.603001e+02	5.118534e+02	2.942995e+02	2.755259e+02	2.997735e+02	2.746941e+02
					4.257845e+02	4.566259e+02	4.386788e+02	4.583089e+02	9.995380e+02	6.187100e+02	6.655421e+02	9.996812e+02	7.570465e+02
					7.236412e+02	7.478045e+02	7.043990e+02	6.402097e+02	6.340802e+02	7.056009e+02	6.938715e+02	6.109420e+02	6.102463e+02
					6.047459e+02	6.053740e+02	6.120261e+02	6.097813e+02	6.079688e+02	6.093638e+02	6.098270e+02	6.062215e+02	6.100193e+02
					6.092104e+02	6.006103e+02	6.077747e+02	6.087810e+02	6.124321e+02	5.623046e+02	4.323526e+02	4.480597e+02	4.477271e+02
					4.362907e+02	4.377566e+02	4.478052e+02	4.536394e+02	4.567292e+02	4.397312e+02	4.493005e+02	4.388883e+02	4.525057e+02
					4.450857e+02	3.707256e+02	4.284766e+02	4.343865e+02	4.274794e+02	4.373027e+02	4.379531e+02	5.742794e+02	4.247718e+02
					4.192285e+02	4.133161e+02	4.211589e+02	5.848665e+02	5.775485e+02	5.799064e+02	5.708223e+02	5.639049e+02	9.995072e+02
					9.998759e+02	9.996313e+02	9.996763e+02	9.998331e+02	9.995319e+02	9.996593e+02	1.000037e+03	9.985581e+02	9.953476e+02
					6.840246e+02	6.587214e+02	5.658234e+02	6.037020e+02	6.063821e+02	5.771124e+02	8.464759e+02	7.701121e+02	7.802972e+02
					8.183605e+02	8.012895e+02	8.222983e+02	8.013377e+02	7.382354e+02	7.735456e+02	7.350508e+02	7.924677e+02	8.332961e+02
					6.375173e+02	6.619483e+02	6.811811e+02	6.925031e+02	7.950000e+02	7.244659e+02	7.169903e+02	6.880868e+02	7.922339e+02
					7.563092e+02	6.453608e+02	7.043288e+02	7.534035e+02	6.776207e+02	7.136018e+02	6.457373e+02	9.995894e+02	9.997524e+02
					9.998009e+02	5.605586e+02	5.625406e+02	4.717869e+02	6.690353e+02	6.099689e+02	6.659094e+02	5.963444e+02	6.487870e+02
					6.787191e+02	6.545521e+02	6.958375e+02	6.376621e+02	6.832089e+02	3.450395e+02	3.400161e+02	4.481741e+02	4.353247e+02
					4.462628e+02	4.491039e+02	4.571433e+02	3.703081e+02	3.127990e+02	5.920486e+02	4.371809e+02	6.073478e+02	6.088373e+02
					6.045859e+02	5.567709e+02	4.163032e+02	4.339607e+02	3.822592e+02	5.399915e+02	6.156890e+02	6.191725e+02	6.158762e+02
					6.142260e+02	6.021296e+02	6.016571e+02	6.083419e+02	2.243646e+02	2.761783e+02	4.515220e+02	5.489936e+02	4.445051e+02
					5.026857e+02	4.673537e+02	3.935298e+02	4.636666e+02	3.580141e+02	4.056148e+02	5.655667e+02	3.836466e+02	5.107689e+02
					5.021142e+02	5.941999e+02	5.599695e+02	5.445817e+02	5.548534e+02	6.701729e+02	6.657536e+02	6.497907e+02	6.223620e+02
					5.674808e+02	6.893068e+02	5.845006e+02	5.406848e+02	5.519926e+02	6.101560e+02	5.811637e+02	5.899888e+02	5.013834e+02
					2.922271e+02	3.343845e+02	3.642488e+02	4.614309e+02	6.206761e+02	6.901483e+02	6.391605e+02	6.170361e+02	6.952607e+02
					6.766209e+02	7.287781e+02	6.724636e+02	7.206891e+02	9.997383e+02	9.996541e+02	9.998448e+02	9.998612e+02	9.994502e+02
					9.728663e+02	9.912397e+02	9.864152e+02	9.820627e+02	9.881454e+02	4.517758e+02	4.218553e+02	6.066496e+02	6.014251e+02
					6.106677e+02	6.078032e+02	5.993586e+02	6.110051e+02	6.118823e+02	5.904274e+02	5.815775e+02	5.704369e+02	5.766118e+02
					5.662420e+02	5.931254e+02	5.934421e+02	6.048135e+02	6.069535e+02	6.016558e+02	6.056098e+02	5.767044e+02	5.739140e+02
					5.541865e+02	5.526507e+02	5.718790e+02	5.649791e+02	5.627095e+02	5.520721e+02	3.214326e+02	2.914944e+02	3.074489e+02
					3.687940e+02	3.334407e+02	4.517595e+02	3.782074e+02	3.670990e+02	4.662819e+02	5.608227e+02	4.986488e+02	5.004076e+02
					6.171060e+02	4.871162e+02	3.983521e+02	3.741543e+02	4.902194e+02	4.561563e+02	5.196941e+02	3.196606e+02	4.231391e+02
					4.371656e+02	4.246512e+02	4.098768e+02	4.063494e+02	3.146075e+02	3.186612e+02	2.752635e+02	3.925505e+02	3.715808e+02
					4.294688e+02	4.417070e+02	3.449273e+02	3.414202e+02	4.047511e+02	3.747509e+02	5.962312e+02	5.852276e+02	5.901947e+02
					6.192980e+02	6.175731e+02	6.136320e+02	6.071119e+02	4.608678e+02	6.211376e+02	4.087327e+02	5.948779e+02	6.006220e+02
					4.214741e+02	6.277681e+02	6.482525e+02	7.025351e+02	9.998046e+02	5.821966e+02	3.441157e+02	3.957569e+02	3.992317e+02
					3.439096e+02	3.849840e+02	3.824568e+02	4.019809e+02	2.621426e+02	4.308494e+02	4.362803e+02	5.610011e+02	4.465858e+02
					4.286220e+02	5.549033e+02	5.619740e+02	5.637403e+02	5.963343e+02	5.742817e+02	5.872189e+02	5.734856e+02	5.802603e+02
					5.673683e+02	5.848344e+02	4.361954e+02	4.330876e+02	4.259225e+02	5.808479e+02	5.846319e+02	6.052066e+02	6.084841e+02
					6.015689e+02	5.937406e+02	5.929740e+02	6.000826e+02	6.035000e+02	6.049766e+02	3.230707e+02	3.325601e+02	3.126968e+02
					6.219459e+02	5.330940e+02	6.284734e+02	6.021477e+02	6.173428e+02	6.080617e+02	5.779516e+02	6.212257e+02	5.899073e+02
					5.816710e+02	5.112391e+02	5.327373e+02	5.311375e+02	5.455785e+02	5.195397e+02	5.503467e+02	6.101638e+02	6.109697e+02
					5.931364e+02	5.579609e+02	5.948226e+02	6.065288e+02	5.451135e+02	4.392379e+02	5.323025e+02	6.034114e+02	5.893201e+02
					6.250042e+02	6.070622e+02	5.516696e+02	5.672203e+02	6.001248e+02	6.095642e+02	5.816968e+02	5.782198e+02	6.139350e+02
					6.084458e+02	6.115181e+02	6.033366e+02	6.124401e+02	6.045945e+02	6.147102e+02	6.125652e+02	6.140678e+02	6.091701e+02
					5.581119e+02	5.588314e+02	5.581662e+02	5.506276e+02	5.120211e+02	5.233455e+02	4.781412e+02	5.309904e+02	2.450818e+02
					3.836025e+02	3.078505e+02	2.578054e+02	3.919820e+02	3.168265e+02	3.715597e+02	2.772805e+02	5.805259e+02	5.699296e+02
					5.714342e+02	4.342633e+02	5.776819e+02	4.353463e+02	4.452987e+02	4.351055e+02	4.474489e+02	4.270553e+02	5.796483e+02
					5.619871e+02	5.653992e+02	5.762688e+02	5.711949e+02	4.332077e+02	4.469992e+02	4.582449e+02	4.539692e+02	4.468725e+02
					4.534243e+02	4.502923e+02	4.477370e+02	4.294240e+02	4.244072e+02	4.272831e+02	4.320008e+02	4.361265e+02	4.508489e+02
					4.454973e+02	4.593632e+02	4.580404e+02	4.479891e+02	3.344975e+02	4.227995e+02	4.432445e+02	3.511901e+02	4.467117e+02
					4.589698e+02	4.603964e+02	4.584289e+02	4.574974e+02	4.530258e+02	4.475044e+02	4.596600e+02	4.584380e+02	4.461037e+02
					4.573931e+02	4.489642e+02	4.436662e+02	4.406953e+02	4.306389e+02	4.309548e+02	4.296822e+02	4.215853e+02	4.214291e+02
					4.247892e+02	4.334823e+02	5.903141e+02	6.070334e+02	6.000382e+02	4.139837e+02	4.275452e+02	4.190026e+02	3.497333e+02
					4.362111e+02	4.391810e+02	4.407695e+02	3.749372e+02	3.717200e+02	3.304412e+02	4.134130e+02	4.256842e+02	4.084045e+02
					4.172709e+02	4.102006e+02	2.632532e+02	3.964616e+02	4.067199e+02	4.359285e+02	4.217827e+02	5.561307e+02	3.689470e+02
					4.560603e+02	4.438551e+02	4.542320e+02	4.499864e+02	4.553049e+02	4.431766e+02	4.308133e+02	4.356988e+02	4.249300e+02
					4.277553e+02	4.345598e+02	4.233593e+02	4.311096e+02	4.338348e+02	6.740576e+02	7.489944e+02	7.176115e+02	6.675125e+02
					7.127286e+02	9.997029e+02	6.524695e+02	9.994646e+02	9.997385e+02	9.995650e+02	9.995616e+02	9.994663e+02	1.004248e+03
					1.001920e+03	1.002398e+03	1.002709e+03	1.003874e+03	1.005641e+03	1.005217e+03	1.004618e+03	7.744349e+02	7.315754e+02
					6.092360e+02	6.551981e+02	9.996235e+02	1.003742e+03	1.005822e+03	1.000910e+03	9.998850e+02	6.133469e+02	6.136614e+02
					6.070008e+02	6.880694e+02	7.787157e+02	7.513312e+02	7.871719e+02	8.095845e+02	7.837593e+02	8.276024e+02	5.616540e+02
					6.210499e+02	5.764813e+02	5.947404e+02	6.290004e+02	5.719308e+02	7.831706e+02	7.644445e+02	7.142933e+02	5.601233e+02
					6.329123e+02	6.093396e+02	5.482658e+02	6.545992e+02	5.568050e+02	5.497418e+02	6.327339e+02	6.074029e+02	5.912757e+02
					5.650845e+02	5.743107e+02	6.059937e+02	5.629715e+02	6.124319e+02	5.609554e+02	5.243230e+02	6.664349e+02	5.482453e+02
					6.435919e+02	6.004709e+02	5.867050e+02	5.613703e+02	5.766960e+02	5.893108e+02	5.768348e+02	5.971912e+02	5.201491e+02
					4.904133e+02	5.397463e+02	6.056101e+02	5.608153e+02	5.973452e+02	6.045341e+02	6.079232e+02	5.861226e+02	5.671712e+02
					5.824034e+02	5.716350e+02	6.181285e+02	5.845694e+02	6.078413e+02	6.087663e+02	6.083294e+02	6.079285e+02	6.082911e+02
					5.948511e+02	5.997211e+02	6.073726e+02	5.533559e+02	5.910759e+02	5.386217e+02	5.576480e+02	6.056414e+02	5.444834e+02
					6.049017e+02	5.703127e+02	5.833086e+02	5.970916e+02	6.083335e+02	5.268428e+02	5.346402e+02	5.274767e+02	5.587180e+02
					4.977097e+02	5.239973e+02	5.478234e+02	5.124985e+02	5.568988e+02	6.045100e+02	5.836816e+02	5.675877e+02	5.832207e+02
					6.168642e+02	6.139129e+02	6.106383e+02	7.347688e+02	7.919496e+02	6.545921e+02	7.166217e+02	6.558061e+02	6.358527e+02
					5.885187e+02	5.263169e+02	5.571045e+02	5.562063e+02	5.493021e+02	5.548672e+02	5.971407e+02	5.929169e+02	5.431856e+02
					5.365624e+02	5.541120e+02	5.255060e+02	4.688784e+02	9.991497e+02	9.973670e+02	1.000152e+03	9.978602e+02	9.972532e+02
					9.972020e+02	9.997703e+02	9.993600e+02	9.996093e+02	9.983624e+02	9.945258e+02	9.944843e+02	9.994917e+02	9.995439e+02
					9.991720e+02	9.997204e+02	9.996242e+02	5.711941e+02	5.763053e+02	5.523284e+02	5.863547e+02	5.832840e+02	6.222004e+02
					5.652417e+02	5.766504e+02	6.144676e+02	5.762273e+02	5.536810e+02	6.015214e+02	5.520887e+02	6.123355e+02	5.877988e+02
					6.386642e+02	5.921085e+02	5.407243e+02	7.478827e+02	7.275000e+02	7.501087e+02	8.037268e+02	6.362800e+02	6.525449e+02
					7.068992e+02	6.753652e+02	6.842856e+02	6.433620e+02	6.498362e+02	6.080618e+02	9.994589e+02	4.524704e+02	4.568159e+02
					4.447619e+02	4.426904e+02	4.398076e+02	4.474970e+02	4.354214e+02	4.285496e+02	4.569817e+02	4.384235e+02	4.354678e+02
					4.483169e+02	4.499859e+02	4.421449e+02	4.406418e+02	5.006027e+02	4.464010e+02	5.710143e+02	5.787083e+02	4.356089e+02
					9.121987e+02	9.136579e+02	9.414568e+02	8.934182e+02	8.405387e+02	9.131014e+02	8.623187e+02	8.425363e+02	6.528269e+02
					5.008498e+02	4.404278e+02	5.137214e+02	9.025535e+02	8.863013e+02	8.691516e+02	8.547976e+02	8.248788e+02	7.761705e+02
					8.109118e+02	8.184461e+02	3.879876e+02	3.301144e+02	2.487933e+02	6.727786e+02	6.340555e+02	6.963182e+02	6.138304e+02
					5.873584e+02	7.558901e+02	7.675241e+02	8.357300e+02	6.176690e+02	8.283275e+02	8.892773e+02	9.351295e+02	8.803497e+02
					5.756391e+02	5.670331e+02	5.855321e+02	5.860925e+02	5.778307e+02	8.890994e+02	8.672098e+02	8.885485e+02	1.004219e+03
					1.004295e+03	1.004916e+03	1.004118e+03	1.002670e+03	1.001230e+03	1.001556e+03	1.003371e+03	9.641817e+02	9.649405e+02
					9.722822e+02	9.721312e+02	9.324223e+02	9.249031e+02	9.521263e+02	9.463259e+02	1.002080e+03	9.997965e+02	9.996661e+02
					9.997255e+02	1.005723e+03	9.474877e+02	9.488254e+02	9.237521e+02	1.000138e+03	9.997143e+02	1.000952e+03	9.049543e+02
					9.228417e+02	9.022773e+02	7.049627e+02	6.536015e+02	6.132060e+02	9.783753e+02	9.917770e+02	9.765069e+02	7.757257e+02
					7.309165e+02	7.328058e+02	6.737691e+02	2.678672e+02	2.738310e+02	2.722813e+02	2.873740e+02	2.875559e+02	2.867448e+02
					6.112763e+02	6.177234e+02	5.031894e+02	6.119339e+02	2.703070e+02	2.655826e+02	2.881289e+02	3.528621e+02	3.806916e+02
					9.720893e+02	9.683062e+02	9.582613e+02	9.820616e+02	8.054074e+02	8.534325e+02	8.026072e+02	8.559527e+02	8.217859e+02
					7.795109e+02	6.727359e+02	5.292938e+02	5.665048e+02	6.889778e+02	8.980577e+02	8.739273e+02	8.688085e+02	8.788691e+02
					9.144354e+02	8.867217e+02	6.404727e+02	6.260012e+02	7.385106e+02	7.301790e+02	8.124106e+02	7.689226e+02	8.777015e+02
					9.169216e+02	8.345209e+02	8.356443e+02	7.702336e+02	9.542132e+02	3.994673e+02	6.873690e+02	5.010554e+02	8.410627e+02
					8.520509e+02	3.538597e+02	3.474611e+02	3.820624e+02	3.512603e+02	4.149759e+02	4.605287e+02	4.730986e+02	2.622918e+02
					2.637587e+02	3.269879e+02	3.146898e+02	2.805872e+02	3.004617e+02	2.759842e+02	5.904967e+02	3.559127e+02	4.368348e+02
					4.420986e+02	4.387763e+02	4.541586e+02	4.284009e+02	2.880032e+02	4.273118e+02	2.915334e+02	4.337872e+02	4.410564e+02
					4.511439e+02	3.075790e+02	2.734279e+02	2.817969e+02	2.622263e+02	2.687457e+02	2.845259e+02	3.840630e+02	5.013928e+02
					4.641430e+02	4.209095e+02	4.525462e+02	4.548074e+02	5.306751e+02	5.260123e+02	5.721892e+02	5.328287e+02	5.328807e+02
					4.771111e+02	9.956309e+02	1.002733e+03	1.001211e+03	1.003038e+03	8.348487e+02	7.822480e+02	7.655453e+02	8.180095e+02
					9.996162e+02	1.000782e+03	9.995723e+02	9.765812e+02	9.996972e+02	9.486709e+02	9.614286e+02	9.932535e+02	9.728183e+02
					9.779607e+02	9.651925e+02	9.947379e+02	9.912798e+02	9.971768e+02	1.002070e+03	1.001466e+03	1.001374e+03	1.002587e+03
					6.462698e+02	6.773695e+02	7.730965e+02	8.661123e+02	9.088259e+02	9.295923e+02	9.611298e+02	9.555617e+02	9.298666e+02
					5.621715e+02	5.616307e+02	5.946181e+02	5.901921e+02	9.694157e+02	9.357482e+02	8.880523e+02	8.973831e+02	1.000453e+03
					9.446689e+02	9.714155e+02	9.208030e+02	9.088707e+02	9.691027e+02	9.517849e+02	9.488129e+02	9.853363e+02	9.912779e+02
					9.941822e+02	9.884552e+02	9.776574e+02	9.960482e+02	9.815380e+02	9.891103e+02	1.003698e+03	1.003160e+03	1.001732e+03
					9.894394e+02	9.774537e+02	9.996393e+02	9.996270e+02	9.819553e+02	9.925828e+02	9.888703e+02	9.540325e+02	9.359231e+02
					9.530868e+02	9.675820e+02	8.738785e+02	8.454813e+02	8.172702e+02	8.496515e+02	8.856998e+02	9.166199e+02	9.159483e+02
					8.895615e+02	9.981426e+02	9.890220e+02	9.919434e+02	9.861213e+02	1.001982e+03	1.000690e+03	8.772304e+02	8.947856e+02
					9.496774e+02	9.828497e+02	9.749177e+02	1.000004e+03	1.001226e+03	9.963773e+02	9.895335e+02	9.527386e+02	9.503165e+02
					9.637204e+02	9.618235e+02	9.536852e+02	9.524400e+02	9.393046e+02	9.578100e+02	9.439525e+02	9.586133e+02	1.000964e+03
					1.001948e+03	1.003105e+03	1.002593e+03	9.984633e+02	9.958862e+02	1.001055e+03	1.000826e+03	1.003352e+03	1.005309e+03
					1.005521e+03	9.933303e+02	9.841361e+02	9.995004e+02	9.913433e+02	9.986300e+02	1.003064e+03	1.002234e+03	9.704446e+02
					8.633565e+02	8.531660e+02	9.592307e+02	7.234555e+02	7.327330e+02	8.234448e+02	7.207872e+02	6.290978e+02	4.396688e+02
					8.069257e+02	7.472193e+02	7.794106e+02	8.142877e+02	6.746448e+02	5.210271e+02	6.253492e+02	3.296473e+02	4.364168e+02
					3.299374e+02	5.186833e+02	3.312247e+02	5.049396e+02	4.772899e+02	4.324830e+02	3.912407e+02	5.664224e+02	4.004815e+02
					6.048130e+02	7.798053e+02	8.572499e+02	8.068498e+02	7.974176e+02	8.827667e+02	7.587805e+02	8.892943e+02	8.569445e+02
					9.508755e+02	9.766300e+02	8.976649e+02	9.395689e+02	9.146961e+02	9.313153e+02	9.366112e+02	9.148422e+02	9.065797e+02
					7.700838e+02	8.441868e+02	8.858611e+02	8.538198e+02	8.335421e+02	8.506672e+02	7.677301e+02	9.628870e+02	9.814240e+02
					9.264315e+02	9.549480e+02	8.960271e+02	9.155291e+02	9.198275e+02	9.478867e+02	9.437437e+02	9.983558e+02	1.001868e+03
					9.994878e+02	1.000094e+03	1.003148e+03	9.995599e+02	1.003104e+03	9.960755e+02	1.003423e+03	1.002255e+03	1.001191e+03
					1.002488e+03	1.003259e+03	1.002507e+03	1.003051e+03	1.002346e+03	1.004747e+03	1.002440e+03	1.000972e+03	1.003546e+03
					1.005559e+03	1.005160e+03	1.004497e+03	1.003536e+03	1.002856e+03	1.003548e+03	1.003556e+03	9.727492e+02	9.963286e+02
					1.003064e+03	1.003178e+03	1.003323e+03	1.003434e+03	1.003103e+03	1.002246e+03	1.003235e+03	1.003628e+03	9.580816e+02
					9.410147e+02	9.438490e+02	9.462138e+02	9.511420e+02	9.611259e+02	9.472939e+02	9.572360e+02	9.765805e+02	9.553416e+02
					9.320200e+02	9.591687e+02	9.490777e+02	9.813572e+02	9.692674e+02	9.431340e+02	9.788138e+02	9.987200e+02	9.672353e+02
					9.747781e+02	1.002402e+03	1.000502e+03	1.001804e+03	1.001029e+03	1.000803e+03	1.000156e+03	9.914986e+02	9.370677e+02
					9.268602e+02	9.403190e+02	9.434418e+02	9.308300e+02	8.833910e+02	9.165412e+02	9.004622e+02	8.806285e+02	9.092658e+02
					8.728426e+02	9.683735e+02	9.449709e+02	9.625027e+02	9.455163e+02	9.616862e+02	9.332185e+02	9.700191e+02	9.584868e+02
					9.604989e+02	9.559228e+02	9.464515e+02	9.185963e+02	9.176462e+02	9.333704e+02	8.988303e+02	9.326022e+02	9.372106e+02
					9.608821e+02	9.492886e+02	9.533331e+02	9.433482e+02	9.358170e+02	8.530561e+02	8.953930e+02	8.763575e+02	8.594914e+02
					7.736075e+02	8.411562e+02	8.183406e+02	8.856957e+02	9.335549e+02	8.988840e+02	9.357534e+02	9.144005e+02	9.025788e+02
					9.414983e+02	9.773878e+02	9.691959e+02	9.800870e+02	9.602901e+02	9.882010e+02	1.002830e+03	1.003248e+03	1.003165e+03
					1.002842e+03	1.003643e+03	1.000671e+03	9.991740e+02	1.002651e+03	1.000983e+03	9.997848e+02	1.000746e+03	9.937498e+02
					9.244939e+02	9.839412e+02	8.697765e+02	9.102892e+02	8.856386e+02	8.937406e+02	8.538363e+02	8.366611e+02	7.842294e+02
					8.131542e+02	8.356288e+02	8.683863e+02	8.110105e+02	8.944695e+02	9.861737e+02	9.766665e+02	9.676854e+02	9.349644e+02
					9.507498e+02	9.880731e+02	9.793414e+02	9.302885e+02	9.170700e+02	8.866127e+02	9.740052e+02	9.342515e+02	9.614283e+02
					9.691739e+02	9.431173e+02	9.520235e+02	9.940461e+02	9.989058e+02	1.000927e+03	9.993683e+02	9.947982e+02	9.966564e+02
					9.998295e+02	9.986977e+02	9.956374e+02	9.803531e+02	9.694446e+02	9.609478e+02	9.753064e+02	9.830882e+02	9.639516e+02
					9.724375e+02	1.000884e+03	1.002772e+03	1.001786e+03	9.769826e+02	9.676835e+02	9.561587e+02	1.001367e+03	1.002909e+03
					9.941596e+02	9.620244e+02	9.996567e+02	9.984393e+02	9.801863e+02	1.003371e+03	1.003474e+03	1.002952e+03	1.001762e+03
					1.002559e+03	1.003676e+03	1.003662e+03	1.002536e+03	9.838784e+02	9.917969e+02	9.828182e+02	9.852197e+02	9.928318e+02
					9.534366e+02	9.877295e+02	9.934309e+02	9.910076e+02	9.787919e+02	9.937297e+02	9.972596e+02	9.650072e+02	9.572356e+02
					9.141230e+02	9.737878e+02	9.839856e+02	9.814911e+02	9.296742e+02	9.574837e+02	8.811845e+02	9.633440e+02	9.953668e+02