<?xml version="1.0"?>

<!--
CSMP_Simulation
-->

<VTKFile type="UnstructuredGrid" version="1.0" byte_order="LittleEndian">
	<UnstructuredGrid>
		<Piece NumberOfPoints="2922" NumberOfCells="5619">
			<Points>
				<DataArray type="Float64" Name="Position" NumberOfComponents="3" format="ascii">
					1.062348e+04	-6.219427e+03	0.000000e+00	1.328123e+04	-3.388001e+03	0.000000e+00	6.533000e+03	-2.871000e+03	0.000000e+00	8.993999e+03	3.450022e+02	0.000000e+00
					6.434000e+03	-6.251000e+03	0.000000e+00	6.415000e+03	-1.312000e+03	0.000000e+00	8.891000e+03	-1.610000e+02	0.000000e+00	1.593372e+04	-6.223812e+03	0.000000e+00
					1.243124e+04	-5.182061e+03	0.000000e+00	1.180818e+04	-6.661451e+03	0.000000e+00	1.199040e+04	-6.569837e+03	0.000000e+00	1.186573e+04	-6.450233e+03	0.000000e+00
					1.224666e+04	-6.222517e+03	0.000000e+00	1.208180e+04	-6.360720e+03	0.000000e+00	1.135568e+04	-6.216921e+03	0.000000e+00	1.177466e+04	-5.800292e+03	0.000000e+00
					1.484109e+03	2.369937e+02	0.000000e+00	1.048845e+04	-4.576829e+03	0.000000e+00	5.088007e+03	2.164612e+02	0.000000e+00	1.616065e+04	6.885872e+02	0.000000e+00
					5.856588e+03	2.844799e+02	0.000000e+00	5.964146e+03	2.322470e+02	0.000000e+00	1.285384e+04	-8.473227e+03	0.000000e+00	6.554646e+03	2.976259e+02	0.000000e+00
					6.220259e+03	3.810972e+02	0.000000e+00	2.455667e+03	2.604214e+02	0.000000e+00	1.185441e+04	-8.594387e+03	0.000000e+00	8.953729e+02	2.424411e+02	0.000000e+00
					1.642061e+04	5.389531e+02	0.000000e+00	9.022812e+03	5.486281e+02	0.000000e+00	1.072547e+04	-4.265213e+03	0.000000e+00	1.596156e+04	-4.568462e+03	0.000000e+00
					1.049681e+04	-6.339904e+03	0.000000e+00	1.229884e+04	9.679014e+02	0.000000e+00	1.346081e+04	9.303555e+02	0.000000e+00	7.674576e+03	2.576962e+02	0.000000e+00
					8.121128e+03	2.577928e+02	0.000000e+00	8.390419e+03	2.530714e+02	0.000000e+00	1.759058e+04	3.107264e+02	0.000000e+00	1.283469e+04	-3.190105e+03	0.000000e+00
					1.310544e+04	-3.163050e+03	0.000000e+00	6.218396e+03	2.847346e+02	0.000000e+00	1.964998e+04	3.306567e+02	0.000000e+00	1.089832e+04	6.517557e+02	0.000000e+00
					9.482042e+03	5.002750e+02	0.000000e+00	1.461891e+04	-3.601876e+03	0.000000e+00	1.694475e+04	2.822433e+02	0.000000e+00	1.223129e+04	-8.439639e+03	0.000000e+00
					7.092101e+03	3.133630e+02	0.000000e+00	7.447673e+03	2.954910e+02	0.000000e+00	5.479449e+03	3.927924e+02	0.000000e+00	1.430834e+04	-8.440884e+03	0.000000e+00
					1.346187e+04	-3.101654e+03	0.000000e+00	1.466219e+04	5.912805e+02	0.000000e+00	1.431424e+04	6.995984e+02	0.000000e+00	1.198158e+04	-3.600157e+03	0.000000e+00
					1.519729e+04	6.008027e+02	0.000000e+00	1.732254e+04	2.914492e+02	0.000000e+00	1.847268e+04	5.552377e+02	0.000000e+00	1.373014e+04	-3.092539e+03	0.000000e+00
					1.598609e+04	-4.803680e+03	0.000000e+00	1.811668e+03	2.957238e+02	0.000000e+00	2.068111e+03	3.301681e+02	0.000000e+00	3.593477e+02	6.241832e-01	0.000000e+00
					1.315684e+04	9.290093e+02	0.000000e+00	9.757773e+03	6.136685e+02	0.000000e+00	1.013994e+04	6.394650e+02	0.000000e+00	9.949611e+03	7.276424e+02	0.000000e+00
					1.479179e+04	-3.977888e+03	0.000000e+00	1.474764e+04	-3.691732e+03	0.000000e+00	1.224233e+04	-3.775151e+03	0.000000e+00	1.235721e+04	-3.992361e+03	0.000000e+00
					1.239488e+04	-3.732875e+03	0.000000e+00	1.247959e+04	-3.889221e+03	0.000000e+00	1.489970e+04	-6.402044e+03	0.000000e+00	1.471371e+04	-6.063480e+03	0.000000e+00
					1.503558e+04	-6.243497e+03	0.000000e+00	1.463383e+04	-6.231790e+03	0.000000e+00	1.359516e+04	-6.370837e+03	0.000000e+00	1.336635e+04	-6.229341e+03	0.000000e+00
					1.486979e+04	-7.470250e+03	0.000000e+00	1.455711e+04	-7.489929e+03	0.000000e+00	1.120299e+04	-4.942350e+03	0.000000e+00	1.218357e+04	-7.531530e+03	0.000000e+00
					1.251446e+04	-7.480192e+03	0.000000e+00	1.240108e+04	-7.647510e+03	0.000000e+00	1.239322e+04	-7.293615e+03	0.000000e+00	1.368325e+04	-7.242141e+03	0.000000e+00
					1.217897e+04	-5.028812e+03	0.000000e+00	1.378964e+04	8.854108e+02	0.000000e+00	1.351945e+04	-3.856343e+03	0.000000e+00	1.333151e+04	-3.674419e+03	0.000000e+00
					1.350782e+04	-3.520236e+03	0.000000e+00	1.479244e+04	-4.909493e+03	0.000000e+00	1.380050e+04	-4.989557e+03	0.000000e+00	3.084262e+03	3.746820e+02	0.000000e+00
					3.006144e+03	2.572346e+02	0.000000e+00	1.252005e+03	2.691829e+02	0.000000e+00	1.642126e+03	2.829086e+02	0.000000e+00	8.235090e+03	4.169793e+02	0.000000e+00
					1.537108e+04	-5.728762e+03	0.000000e+00	1.550100e+04	-5.598568e+03	0.000000e+00	1.543359e+04	-5.440257e+03	0.000000e+00	1.516251e+04	-4.367050e+03	0.000000e+00
					1.542543e+04	-4.626431e+03	0.000000e+00	1.547978e+04	-4.435709e+03	0.000000e+00	1.421355e+04	-5.774419e+03	0.000000e+00	1.398427e+04	-5.607986e+03	0.000000e+00
					1.433859e+04	-5.644592e+03	0.000000e+00	1.422646e+04	-5.431404e+03	0.000000e+00	1.278519e+04	-5.034132e+03	0.000000e+00	1.297347e+04	-4.888217e+03	0.000000e+00
					1.308886e+04	-5.058455e+03	0.000000e+00	1.295570e+04	-5.179625e+03	0.000000e+00	1.371210e+04	-5.548806e+03	0.000000e+00	1.306586e+04	-5.417419e+03	0.000000e+00
					1.398961e+04	-5.001093e+03	0.000000e+00	1.423737e+04	-5.238687e+03	0.000000e+00	1.553662e+04	-5.035070e+03	0.000000e+00	1.541510e+04	-5.176839e+03	0.000000e+00
					1.433199e+04	-4.490070e+03	0.000000e+00	1.772795e+04	4.701005e+02	0.000000e+00	1.301714e+04	-3.340203e+03	0.000000e+00	1.291928e+04	-6.673458e+03	0.000000e+00
					1.305404e+04	-6.847013e+03	0.000000e+00	1.275393e+04	-6.763001e+03	0.000000e+00	1.299225e+04	-6.992535e+03	0.000000e+00	1.111766e+04	-6.671729e+03	0.000000e+00
					1.100675e+04	-6.816450e+03	0.000000e+00	1.117046e+04	-6.969377e+03	0.000000e+00	1.205000e+04	-8.078535e+03	0.000000e+00	1.184148e+04	-7.859306e+03	0.000000e+00
					1.196430e+04	-8.231484e+03	0.000000e+00	1.298170e+04	-7.885249e+03	0.000000e+00	1.295062e+04	-8.221395e+03	0.000000e+00	1.309178e+04	-8.017537e+03	0.000000e+00
					1.120470e+04	-5.453850e+03	0.000000e+00	1.115255e+04	-5.738876e+03	0.000000e+00	1.126426e+04	-5.604117e+03	0.000000e+00	1.184009e+04	-5.022972e+03	0.000000e+00
					1.172669e+04	-4.862486e+03	0.000000e+00	1.153323e+04	-4.959783e+03	0.000000e+00	1.175756e+04	-5.171477e+03	0.000000e+00	1.534244e+04	-6.934844e+03	0.000000e+00
					1.455437e+04	-8.098472e+03	0.000000e+00	1.476956e+04	-7.877258e+03	0.000000e+00	1.464624e+04	-8.340289e+03	0.000000e+00	1.404268e+04	-7.444684e+03	0.000000e+00
					1.421918e+04	-7.630822e+03	0.000000e+00	1.428388e+04	-7.472196e+03	0.000000e+00	1.526650e+04	-7.239097e+03	0.000000e+00	1.513630e+04	-7.368500e+03	0.000000e+00
					1.581589e+04	-5.652546e+03	0.000000e+00	1.296440e+04	-6.343040e+03	0.000000e+00	1.295470e+04	-6.059130e+03	0.000000e+00	1.303797e+04	-6.200013e+03	0.000000e+00
					1.273442e+04	-6.210589e+03	0.000000e+00	1.360396e+04	-6.962240e+03	0.000000e+00	1.362392e+04	-6.655270e+03	0.000000e+00	1.339020e+04	-6.812359e+03	0.000000e+00
					6.442692e+03	4.405175e+02	0.000000e+00	3.840145e+03	2.404374e+02	0.000000e+00	3.475756e+03	2.459832e+02	0.000000e+00	3.582548e+03	3.131050e+02	0.000000e+00
					1.179383e+04	-4.550717e+03	0.000000e+00	1.173986e+04	-5.484162e+03	0.000000e+00	1.062189e+04	-5.748233e+03	0.000000e+00	1.180024e+04	-3.998124e+03	0.000000e+00
					1.173389e+04	-3.844468e+03	0.000000e+00	1.197836e+04	-3.861204e+03	0.000000e+00	1.188099e+04	-3.736811e+03	0.000000e+00	1.137465e+04	-4.416604e+03	0.000000e+00
					1.124799e+04	-4.291994e+03	0.000000e+00	1.108948e+04	-4.439061e+03	0.000000e+00	1.120866e+04	-4.578218e+03	0.000000e+00	1.076080e+04	-6.185724e+03	0.000000e+00
					1.052158e+04	-6.171076e+03	0.000000e+00	1.061654e+04	-6.082875e+03	0.000000e+00	1.068627e+04	-6.344822e+03	0.000000e+00	1.547934e+04	-6.007495e+03	0.000000e+00
					1.239362e+04	-8.015408e+03	0.000000e+00	1.231714e+04	-8.236339e+03	0.000000e+00	1.259828e+04	-8.069267e+03	0.000000e+00	1.701531e+04	4.509240e+02	0.000000e+00
					1.277290e+04	-3.855596e+03	0.000000e+00	1.248342e+04	-4.291681e+03	0.000000e+00	1.951687e+04	4.566190e+02	0.000000e+00	1.409639e+04	-3.762137e+03	0.000000e+00
					1.395297e+04	-3.853813e+03	0.000000e+00	1.426096e+04	-3.882789e+03	0.000000e+00	1.412655e+04	-4.015160e+03	0.000000e+00	1.454529e+04	-4.454906e+03	0.000000e+00
					1.477335e+04	-4.577894e+03	0.000000e+00	1.473337e+04	-4.284850e+03	0.000000e+00	1.486818e+04	-4.392328e+03	0.000000e+00	1.182077e+04	-6.079763e+03	0.000000e+00
					1.161805e+04	-6.234353e+03	0.000000e+00	1.190807e+04	-6.249025e+03	0.000000e+00	1.174207e+04	-6.340720e+03	0.000000e+00	1.216930e+04	-5.632604e+03	0.000000e+00
					1.242431e+04	-5.486649e+03	0.000000e+00	1.241345e+04	-5.774949e+03	0.000000e+00	1.249642e+04	-5.631837e+03	0.000000e+00	1.225177e+04	-5.774741e+03	0.000000e+00
					1.257980e+04	-5.777980e+03	0.000000e+00	1.225809e+04	-5.482228e+03	0.000000e+00	1.256570e+04	-5.502870e+03	0.000000e+00	1.238428e+04	-6.062964e+03	0.000000e+00
					1.282796e+04	-5.599574e+03	0.000000e+00	1.196367e+04	-6.067125e+03	0.000000e+00	1.167268e+04	-6.097839e+03	0.000000e+00	1.277630e+04	-6.604007e+03	0.000000e+00
					1.500551e+04	-7.272801e+03	0.000000e+00	1.436310e+04	-7.629506e+03	0.000000e+00	1.405447e+04	-7.614436e+03	0.000000e+00	1.378616e+04	-7.311337e+03	0.000000e+00
					1.449798e+04	-7.361653e+03	0.000000e+00	1.450249e+04	-7.635568e+03	0.000000e+00	1.431253e+04	-7.811639e+03	0.000000e+00	1.414808e+04	-7.968868e+03	0.000000e+00
					1.487244e+04	-7.758708e+03	0.000000e+00	1.460617e+04	-7.765267e+03	0.000000e+00	1.424603e+04	-8.234521e+03	0.000000e+00	1.448709e+04	-7.900806e+03	0.000000e+00
					1.464000e+04	-7.940785e+03	0.000000e+00	1.490539e+04	-7.933881e+03	0.000000e+00	1.510985e+04	-7.219671e+03	0.000000e+00	1.487015e+04	-7.309580e+03	0.000000e+00
					1.490000e+04	-6.991785e+03	0.000000e+00	1.434632e+04	-7.340104e+03	0.000000e+00	1.461365e+04	-7.391157e+03	0.000000e+00	1.466017e+04	-7.113627e+03	0.000000e+00
					1.516388e+04	-7.108649e+03	0.000000e+00	1.519896e+04	-6.954921e+03	0.000000e+00	1.522463e+04	-6.802707e+03	0.000000e+00	1.504350e+04	-6.973318e+03	0.000000e+00
[...]
			<PointData Scalars="bulk fluid density">
				<DataArray type="Float64" Name="bulk fluid density" NumberOfComponents="1" format="ascii">
					2.437006e+02	6.970665e+02	9.685473e+02	9.864299e+02	6.754582e+02	9.893977e+02	9.056063e+02	2.970118e+02
					6.023050e+02	4.071466e+02	5.479460e+02	5.573239e+02	5.448449e+02	5.493077e+02	3.875370e+02	5.970357e+02	1.000003e+03
					5.912145e+02	9.891885e+02	9.993938e+02	9.710013e+02	9.682324e+02	3.310538e+02	9.782730e+02	9.927197e+02	9.998894e+02
					2.854716e+02	9.996275e+02	9.995928e+02	9.963334e+02	6.299614e+02	6.951008e+02	2.128381e+02	9.998779e+02	9.998157e+02
					9.936279e+02	9.911797e+02	9.950268e+02	1.000535e+03	7.020242e+02	7.318652e+02	9.819424e+02	1.000204e+03	9.994426e+02
					9.978052e+02	7.691070e+02	9.998338e+02	4.057143e+02	9.962699e+02	9.949616e+02	9.740162e+02	4.038372e+02	7.710577e+02
					9.998478e+02	9.999009e+02	5.726498e+02	9.993582e+02	1.000383e+03	9.999278e+02	7.926288e+02	6.317457e+02	9.999456e+02
					9.998668e+02	9.975458e+02	1.000070e+03	9.995115e+02	9.998810e+02	9.995972e+02	6.953436e+02	7.626692e+02	6.700906e+02
					6.617600e+02	6.519390e+02	6.602492e+02	3.964315e+02	5.932094e+02	3.892692e+02	5.770343e+02	3.973170e+02	3.909171e+02
					4.416444e+02	4.430410e+02	6.306934e+02	4.442966e+02	4.427633e+02	4.489161e+02	4.352058e+02	4.336979e+02	6.125930e+02
					9.996977e+02	5.806212e+02	6.223560e+02	6.794071e+02	5.603579e+02	6.116346e+02	9.993465e+02	9.997831e+02	9.997641e+02
					9.998869e+02	9.959539e+02	3.033283e+02	3.302954e+02	3.609672e+02	6.348187e+02	5.912852e+02	6.599362e+02	5.814251e+02
					5.826895e+02	5.968556e+02	6.043572e+02	6.029469e+02	6.068331e+02	6.005678e+02	5.943023e+02	5.768921e+02	5.780878e+02
					6.134831e+02	6.139420e+02	4.747537e+02	5.171314e+02	5.783787e+02	9.998405e+02	6.872407e+02	4.102395e+02	4.180951e+02
					4.140124e+02	4.241002e+02	4.035309e+02	3.962780e+02	4.130226e+02	4.371579e+02	4.365875e+02	3.363146e+02	4.577283e+02
					4.558440e+02	4.614198e+02	5.498671e+02	3.225997e+02	4.015959e+02	6.142347e+02	5.674237e+02	5.593175e+02	6.174887e+02
					4.143485e+02	4.420708e+02	4.395931e+02	3.222917e+02	4.414832e+02	4.483793e+02	4.424752e+02	4.213008e+02	4.310693e+02
					4.497216e+02	3.959309e+02	5.263670e+02	3.896100e+02	3.916001e+02	4.231101e+02	4.096445e+02	4.165168e+02	9.951071e+02
					1.000011e+03	9.997455e+02	9.995237e+02	5.278217e+02	6.121810e+02	2.924941e+02	5.376792e+02	5.495843e+02	5.671064e+02
					5.536402e+02	5.962970e+02	5.114658e+02	4.941121e+02	6.704012e+02	3.048463e+02	2.317366e+02	2.519661e+02	2.403831e+02
					3.398544e+02	4.583196e+02	4.409493e+02	4.600925e+02	9.995137e+02	6.410473e+02	6.506395e+02	9.996811e+02	6.716737e+02
					6.274310e+02	6.562832e+02	5.960113e+02	5.830732e+02	5.512632e+02	5.933476e+02	5.782278e+02	5.784934e+02	5.815287e+02
					5.642459e+02	5.688618e+02	5.868113e+02	5.857767e+02	5.655159e+02	5.728103e+02	5.732816e+02	5.584228e+02	5.920237e+02
					5.800288e+02	5.466395e+02	5.657249e+02	5.707341e+02	5.865387e+02	4.073724e+02	4.329169e+02	4.482849e+02	4.480046e+02
					4.363680e+02	4.382318e+02	4.481007e+02	4.544262e+02	4.582433e+02	4.421921e+02	4.501821e+02	4.412341e+02	4.542223e+02
					4.472360e+02	3.726637e+02	4.287151e+02	4.360593e+02	4.209381e+02	4.373574e+02	4.393697e+02	4.288255e+02	4.248352e+02
					4.192544e+02	4.133014e+02	4.204288e+02	3.952541e+02	3.958884e+02	3.959675e+02	4.018178e+02	4.081989e+02	9.994792e+02
					9.998717e+02	9.995540e+02	9.996435e+02	9.998282e+02	9.995317e+02	9.996581e+02	1.000037e+03	9.984339e+02	9.948812e+02
					5.638957e+02	5.379964e+02	5.768427e+02	5.966009e+02	5.929099e+02	5.622199e+02	7.870669e+02	6.855207e+02	6.979151e+02
					7.479133e+02	7.253137e+02	7.544486e+02	7.247550e+02	6.391874e+02	6.871661e+02	6.354437e+02	7.158342e+02	7.734388e+02
					5.661302e+02	5.377566e+02	5.608218e+02	5.813104e+02	7.176796e+02	6.212203e+02	6.276516e+02	5.783573e+02	7.174121e+02
					6.744428e+02	5.399762e+02	5.926221e+02	6.605228e+02	5.586190e+02	6.035571e+02	5.478401e+02	9.995887e+02	9.997524e+02
					9.998008e+02	5.749080e+02	6.064892e+02	6.104428e+02	6.227670e+02	6.720148e+02	6.674142e+02	6.710051e+02	6.124312e+02
					6.367559e+02	6.131271e+02	6.481608e+02	6.321080e+02	6.339912e+02	3.414058e+02	3.353372e+02	4.510872e+02	4.378914e+02
					4.497073e+02	4.523491e+02	4.579695e+02	3.715720e+02	3.113304e+02	4.113422e+02	4.087030e+02	6.117948e+02	3.797466e+02
					3.763913e+02	3.400534e+02	3.954467e+02	4.026188e+02	3.939218e+02	3.637414e+02	5.739873e+02	5.957813e+02	5.976968e+02
					5.689931e+02	5.516375e+02	5.636232e+02	5.631512e+02	1.877150e+02	2.411948e+02	3.724342e+02	4.930291e+02	4.233058e+02
					4.231170e+02	3.757721e+02	3.156543e+02	3.971171e+02	3.513673e+02	3.299171e+02	5.110677e+02	3.091211e+02	4.317981e+02
					4.763917e+02	5.968674e+02	4.981749e+02	5.365143e+02	5.730470e+02	6.108095e+02	5.678059e+02	5.498269e+02	5.862121e+02
					5.267683e+02	5.811507e+02	5.304161e+02	5.197212e+02	6.071357e+02	5.632502e+02	5.273150e+02	5.405733e+02	3.669854e+02
					2.642875e+02	2.698762e+02	2.801043e+02	3.468887e+02	5.827440e+02	6.361938e+02	5.592039e+02	6.159731e+02	5.795616e+02
					6.426056e+02	6.551031e+02	6.459421e+02	6.139197e+02	9.997381e+02	9.996540e+02	9.998441e+02	9.998573e+02	9.993645e+02
					9.692867e+02	9.908647e+02	9.865527e+02	9.801851e+02	9.866875e+02	4.546317e+02	4.219938e+02	5.493102e+02	5.378264e+02
					5.661289e+02	5.527226e+02	5.364366e+02	5.606348e+02	5.659918e+02	3.998986e+02	3.970788e+02	4.031145e+02	4.047425e+02
					4.083506e+02	5.237753e+02	5.192061e+02	5.501647e+02	5.531336e+02	5.374178e+02	5.507569e+02	3.947463e+02	3.977953e+02
					4.101286e+02	4.106566e+02	3.980612e+02	4.027740e+02	4.043766e+02	4.106443e+02	2.529803e+02	2.331564e+02	2.291907e+02
					2.821136e+02	3.695579e+02	3.109999e+02	3.343939e+02	3.186855e+02	3.555328e+02	4.529858e+02	3.825225e+02	3.804043e+02
					5.149754e+02	3.668535e+02	3.156973e+02	3.251206e+02	3.219193e+02	3.129496e+02	3.205912e+02	2.692322e+02	4.244876e+02
					4.420973e+02	4.150747e+02	4.082789e+02	4.071184e+02	3.144036e+02	3.421757e+02	2.445694e+02	3.993605e+02	3.921592e+02
					4.295463e+02	4.452272e+02	3.675122e+02	3.131677e+02	3.117414e+02	3.048906e+02	5.345552e+02	3.980340e+02	3.915637e+02
					5.812968e+02	5.803143e+02	4.293064e+02	5.545192e+02	3.974304e+02	3.907875e+02	3.837849e+02	6.231474e+02	4.089962e+02
					4.245039e+02	6.404676e+02	6.739407e+02	6.641279e+02	9.998040e+02	4.058371e+02	3.863200e+02	4.008619e+02	4.040095e+02
					3.887725e+02	3.813264e+02	3.867388e+02	4.058443e+02	2.608115e+02	4.287942e+02	4.363276e+02	4.242815e+02	4.273863e+02
					4.223724e+02	4.169469e+02	4.200674e+02	4.135044e+02	5.423158e+02	4.104036e+02	4.069108e+02	4.157125e+02	4.212947e+02
					4.275291e+02	4.116150e+02	4.362964e+02	4.331621e+02	4.250878e+02	5.975243e+02	5.980208e+02	5.914266e+02	5.811269e+02
					5.899245e+02	5.288491e+02	5.288421e+02	5.390048e+02	5.511825e+02	5.534555e+02	3.301162e+02	2.754464e+02	2.762737e+02
					3.718805e+02	6.124413e+02	5.128737e+02	5.473419e+02	4.933048e+02	5.693036e+02	5.160392e+02	5.715064e+02	5.100706e+02
					6.196272e+02	5.938990e+02	5.839582e+02	6.197511e+02	6.217212e+02	6.147453e+02	6.230177e+02	6.147807e+02	6.102746e+02
					3.997756e+02	3.333362e+02	3.695711e+02	3.993743e+02	3.081059e+02	3.067211e+02	2.902455e+02	3.065571e+02	4.702027e+02
					3.231913e+02	6.053043e+02	6.150691e+02	6.109740e+02	6.025026e+02	5.985502e+02	6.139632e+02	6.065416e+02	5.924862e+02
					5.679553e+02	5.798102e+02	5.577530e+02	5.826592e+02	5.572710e+02	6.025500e+02	5.960089e+02	5.964132e+02	3.858530e+02
					5.008161e+02	6.016422e+02	5.919575e+02	4.934711e+02	6.099329e+02	5.454929e+02	6.113870e+02	5.607131e+02	2.194709e+02
					3.898098e+02	3.498375e+02	2.335113e+02	3.962511e+02	3.302148e+02	3.867858e+02	2.755722e+02	4.105590e+02	4.241994e+02
					4.297575e+02	4.356633e+02	4.240067e+02	4.353517e+02	4.457991e+02	4.354097e+02	4.476777e+02	4.231546e+02	4.150328e+02
					4.240972e+02	4.171616e+02	4.108672e+02	4.100793e+02	4.238081e+02	4.473651e+02	4.588604e+02	4.542067e+02	4.472138e+02
					4.545341e+02	4.522392e+02	4.489261e+02	4.293225e+02	4.231609e+02	4.271512e+02	4.305271e+02	4.362004e+02	4.538180e+02
					4.482150e+02	4.604567e+02	4.593969e+02	4.513913e+02	3.300772e+02	4.260149e+02	4.467419e+02	3.484638e+02	4.500418e+02
					4.614108e+02	4.617486e+02	4.608534e+02	4.598982e+02	4.531547e+02	4.477724e+02	4.603996e+02	4.588068e+02	4.463412e+02
					4.576333e+02	4.491645e+02	4.445493e+02	4.429200e+02	4.229572e+02	4.333817e+02	4.313028e+02	4.226028e+02	4.209886e+02
					4.269897e+02	4.357250e+02	4.083473e+02	4.006680e+02	4.043913e+02	4.117336e+02	3.953628e+02	4.216359e+02	3.493016e+02
					4.398703e+02	4.408473e+02	4.426033e+02	3.698426e+02	3.672997e+02	3.257288e+02	4.135465e+02	4.156414e+02	4.081625e+02
					4.181693e+02	4.135987e+02	2.536249e+02	4.003243e+02	3.933478e+02	4.361597e+02	4.200751e+02	4.156122e+02	3.704574e+02
					4.564179e+02	4.440470e+02	4.550689e+02	4.503634e+02	4.558536e+02	4.434371e+02	4.308476e+02	4.359388e+02	4.247524e+02
					4.276377e+02	4.347495e+02	4.232150e+02	4.312396e+02	4.339901e+02	5.719026e+02	6.931686e+02	6.563099e+02	6.120128e+02
					6.600819e+02	9.997014e+02	6.175343e+02	9.994635e+02	9.997373e+02	9.995645e+02	9.995611e+02	9.994660e+02	1.004240e+03
					1.001919e+03	1.002397e+03	1.002707e+03	1.003866e+03	1.005522e+03	1.005185e+03	1.004588e+03	7.047994e+02	6.673555e+02
					5.940015e+02	5.346007e+02	9.996235e+02	1.003736e+03	1.005729e+03	1.000910e+03	9.998849e+02	6.136750e+02	5.645108e+02
					5.621658e+02	6.234175e+02	7.142103e+02	6.720326e+02	7.178300e+02	7.509646e+02	7.283266e+02	7.693264e+02	6.455627e+02
					5.852031e+02	5.922247e+02	5.204533e+02	5.907368e+02	5.975630e+02	7.045977e+02	6.823172e+02	6.189136e+02	5.741020e+02
					4.131024e+02	6.314014e+02	5.874251e+02	5.538712e+02	6.227662e+02	6.194014e+02	5.904530e+02	5.708433e+02	6.100690e+02
					6.335164e+02	6.137617e+02	5.699814e+02	6.015535e+02	5.887818e+02	5.940959e+02	5.884734e+02	6.528927e+02	5.081016e+02
					5.983991e+02	6.579965e+02	5.538457e+02	6.289308e+02	6.482141e+02	5.322118e+02	6.086317e+02	5.700699e+02	5.873634e+02
					6.089397e+02	5.922807e+02	5.819623e+02	6.000678e+02	5.379942e+02	5.509285e+02	5.777334e+02	5.995195e+02	6.194502e+02
					6.062321e+02	6.318455e+02	5.654860e+02	6.082234e+02	5.764997e+02	5.652981e+02	5.662756e+02	5.790849e+02	5.564204e+02
					5.276377e+02	5.874988e+02	5.828845e+02	6.030290e+02	5.947445e+02	6.146941e+02	6.033543e+02	5.876240e+02	6.088489e+02
					5.915941e+02	6.046082e+02	5.943855e+02	5.895736e+02	6.086507e+02	6.074610e+02	6.020593e+02	6.079431e+02	5.760518e+02
					6.076386e+02	6.057846e+02	6.068665e+02	6.074902e+02	6.150618e+02	5.943896e+02	6.109657e+02	6.179543e+02	6.174132e+02
					5.863849e+02	5.741751e+02	5.589027e+02	6.403977e+02	7.164055e+02	5.232923e+02	6.135331e+02	5.393779e+02	5.055005e+02
					3.164749e+02	3.096637e+02	5.403973e+02	3.513607e+02	3.133847e+02	5.122547e+02	4.734412e+02	4.263351e+02	4.203938e+02
					4.198900e+02	4.618918e+02	5.160220e+02	4.662181e+02	9.992208e+02	9.981061e+02	1.000152e+03	9.976905e+02	9.970264e+02
					9.970383e+02	9.997717e+02	9.993600e+02	9.996092e+02	9.987577e+02	9.956577e+02	9.965157e+02	9.994913e+02	9.995423e+02
					9.992922e+02	9.997112e+02	9.996095e+02	5.545672e+02	5.878925e+02	6.096796e+02	5.636004e+02	6.154948e+02	5.871590e+02
					6.205564e+02	6.166532e+02	5.952042e+02	5.995112e+02	6.208869e+02	5.877049e+02	6.227970e+02	5.456740e+02	5.670933e+02
					5.225169e+02	5.983751e+02	5.221179e+02	6.721981e+02	6.552229e+02	6.855362e+02	7.489373e+02	5.644066e+02	5.908565e+02
					6.370670e+02	5.844928e+02	5.782149e+02	5.520088e+02	5.354202e+02	5.526959e+02	9.994589e+02	4.526313e+02	4.570994e+02
					4.450811e+02	4.429167e+02	4.400651e+02	4.477956e+02	4.400162e+02	4.325984e+02	4.595337e+02	4.385071e+02	4.355650e+02
					4.486161e+02	4.503695e+02	4.423104e+02	4.409333e+02	4.569447e+02	4.469322e+02	4.331265e+02	4.251731e+02	4.376516e+02
					9.023662e+02	9.033645e+02	9.343524e+02	8.813591e+02	8.230939e+02	9.034688e+02	8.474630e+02	8.254824e+02	6.157850e+02
					4.471457e+02	3.937972e+02	4.623994e+02	8.918278e+02	8.739483e+02	8.548243e+02	8.393564e+02	8.059824e+02	7.514931e+02
					7.901829e+02	7.992203e+02	3.579339e+02	3.315196e+02	2.612990e+02	6.306338e+02	5.875288e+02	6.595000e+02	5.620029e+02
					5.328056e+02	7.273330e+02	7.412674e+02	8.174180e+02	5.752979e+02	8.086184e+02	8.770406e+02	9.276333e+02	8.660932e+02
					4.011692e+02	4.090949e+02	3.982191e+02	4.035584e+02	4.032366e+02	8.713108e+02	8.505265e+02	8.698614e+02	1.003576e+03
					1.003699e+03	1.004489e+03	1.003656e+03	1.002541e+03	1.001025e+03	1.001454e+03	1.003328e+03	9.539013e+02	9.532498e+02
					9.677847e+02	9.671835e+02	9.258786e+02	9.153288e+02	9.469957e+02	9.391948e+02	1.001716e+03	9.990742e+02	9.989068e+02
					9.996151e+02	1.005587e+03	9.390802e+02	9.392740e+02	9.086116e+02	1.000137e+03	9.997138e+02	1.000949e+03	8.913718e+02
					9.086380e+02	8.878667e+02	6.453848e+02	6.163416e+02	6.570545e+02	9.700429e+02	9.879547e+02	9.685470e+02	7.517617e+02
					7.019976e+02	7.028472e+02	6.374963e+02	2.648715e+02	2.730232e+02	2.718644e+02	2.885924e+02	2.842583e+02	2.827349e+02
					4.041568e+02	6.088411e+02	3.900262e+02	5.653274e+02	2.700456e+02	2.651590e+02	2.906337e+02	3.221482e+02	3.076990e+02
					9.683077e+02	9.641928e+02	9.531130e+02	9.793022e+02	7.856255e+02	8.412282e+02	7.843955e+02	8.423111e+02	8.131437e+02
					7.693204e+02	6.409175e+02	4.736092e+02	5.237838e+02	6.659773e+02	8.880418e+02	8.622377e+02	8.591886e+02	8.776399e+02
					9.090870e+02	8.837514e+02	6.062233e+02	5.923540e+02	7.344606e+02	7.187627e+02	7.952085e+02	7.469539e+02	8.645093e+02
					9.095581e+02	8.169160e+02	8.209543e+02	7.484926e+02	9.480497e+02	3.540074e+02	6.423642e+02	4.417411e+02	8.159918e+02
					8.292137e+02	3.194447e+02	3.129788e+02	3.504604e+02	3.121069e+02	3.801429e+02	4.219252e+02	4.301359e+02	2.768241e+02
					2.820580e+02	2.884305e+02	2.773640e+02	2.803574e+02	3.017874e+02	2.752095e+02	3.948415e+02	3.321131e+02	4.318772e+02
					4.422848e+02	4.390542e+02	4.547662e+02	4.281032e+02	2.841092e+02	4.297813e+02	2.870905e+02	4.380063e+02	4.413491e+02
					4.514420e+02	3.099812e+02	2.739899e+02	2.812458e+02	2.635003e+02	2.710069e+02	2.686390e+02	3.402224e+02	4.548072e+02
					4.157742e+02	3.841863e+02	3.964221e+02	3.996901e+02	4.732318e+02	4.676831e+02	5.142829e+02	4.720301e+02	4.738782e+02
					4.249971e+02	9.932192e+02	1.002471e+03	1.000515e+03	1.002949e+03	8.365781e+02	7.808626e+02	7.681374e+02	8.236273e+02
					9.996157e+02	1.000778e+03	9.995716e+02	9.734259e+02	9.993753e+02	9.426498e+02	9.571634e+02	9.893319e+02	9.613763e+02
					9.696340e+02	9.517670e+02	9.931146e+02	9.894187e+02	9.959587e+02	1.001734e+03	1.000783e+03	1.001230e+03	1.002582e+03
					5.415197e+02	6.010078e+02	7.113065e+02	8.217759e+02	8.812045e+02	9.045587e+02	9.448675e+02	9.379060e+02	9.036726e+02
					5.764854e+02	6.211069e+02	6.114727e+02	5.966031e+02	9.661908e+02	9.290994e+02	8.760077e+02	8.864182e+02	1.000416e+03
					9.334538e+02	9.673504e+02	9.079295e+02	8.984600e+02	9.672848e+02	9.489170e+02	9.456902e+02	9.820750e+02	9.889963e+02
					9.924897e+02	9.859684e+02	9.786153e+02	9.950772e+02	9.804433e+02	9.875906e+02	1.003620e+03	1.002962e+03	1.001282e+03
					9.873982e+02	9.743644e+02	9.994990e+02	9.992017e+02	9.804820e+02	9.917484e+02	9.872529e+02	9.453566e+02	9.247111e+02
					9.451046e+02	9.614831e+02	8.580547e+02	8.276401e+02	7.932191e+02	8.289630e+02	8.761511e+02	9.096233e+02	9.097588e+02
					8.813088e+02	9.971419e+02	9.863498e+02	9.901059e+02	9.831207e+02	1.001982e+03	1.000690e+03	8.578521e+02	8.774378e+02
					9.419344e+02	9.799635e+02	9.713541e+02	9.999834e+02	1.001212e+03	9.957391e+02	9.875203e+02	9.468167e+02	9.442504e+02
					9.586966e+02	9.569038e+02	9.481929e+02	9.588922e+02	9.235282e+02	9.479206e+02	9.301860e+02	9.458698e+02	1.000966e+03
					1.001947e+03	1.003110e+03	1.002598e+03	9.983664e+02	9.957602e+02	1.001052e+03	1.000716e+03	1.003031e+03	1.004985e+03
					1.005253e+03	9.910935e+02	9.798641e+02	9.980711e+02	9.879408e+02	9.963940e+02	1.002185e+03	1.002169e+03	9.646113e+02
					8.500806e+02	8.387164e+02	9.475285e+02	6.900887e+02	6.920262e+02	7.911590e+02	6.937498e+02	5.959723e+02	3.836114e+02
					7.803171e+02	7.103240e+02	7.466012e+02	7.872176e+02	6.289528e+02	4.653271e+02	5.746025e+02	2.988985e+02	3.763073e+02
					3.002302e+02	4.627368e+02	2.967920e+02	4.432425e+02	4.150580e+02	3.652986e+02	3.377183e+02	5.116962e+02	3.319891e+02
					5.717284e+02	7.506406e+02	8.243930e+02	7.690991e+02	7.604707e+02	8.567273e+02	7.178732e+02	8.633156e+02	8.274386e+02
					9.365435e+02	9.690726e+02	8.705140e+02	9.241135e+02	8.946586e+02	9.157409e+02	9.198091e+02	8.986173e+02	8.881441e+02
					7.345855e+02	8.337038e+02	8.698203e+02	8.375868e+02	8.235612e+02	8.302926e+02	7.478908e+02	9.567315e+02	9.768307e+02
					9.151295e+02	9.484448e+02	8.791905e+02	9.057583e+02	9.005391e+02	9.305860e+02	9.290999e+02	9.964916e+02	1.000556e+03
					9.978263e+02	9.988950e+02	1.002145e+03	9.975926e+02	1.002177e+03	9.934120e+02	1.002792e+03	1.001356e+03	1.000254e+03
					1.001577e+03	1.002738e+03	1.002001e+03	1.002358e+03	1.001588e+03	1.004319e+03	1.002109e+03	1.000810e+03	1.003397e+03
					1.005376e+03	1.004859e+03	1.004246e+03	1.003517e+03	1.002844e+03	1.003465e+03	1.003511e+03	9.702777e+02	9.961679e+02
					1.003072e+03	1.003212e+03	1.003335e+03	1.003447e+03	1.003096e+03	1.002238e+03	1.003253e+03	1.003642e+03	9.501944e+02
					9.278428e+02	9.319503e+02	9.381413e+02	9.442873e+02	9.512843e+02	9.296194e+02	9.508342e+02	9.734524e+02	9.494906e+02
					9.233669e+02	9.535039e+02	9.430685e+02	9.787189e+02	9.650995e+02	9.348097e+02	9.749301e+02	9.984955e+02	9.625432e+02
					9.705792e+02	1.002400e+03	1.000502e+03	1.001804e+03	1.000937e+03	1.000802e+03	1.000154e+03	9.899358e+02	9.295355e+02
					9.188675e+02	9.335951e+02	9.371440e+02	9.237872e+02	8.646015e+02	9.038475e+02	8.862007e+02	8.622586e+02	8.945314e+02
					8.546734e+02	9.638362e+02	9.377752e+02	9.574254e+02	9.376879e+02	9.561717e+02	9.240587e+02	9.649053e+02	9.517680e+02
					9.535794e+02	9.493148e+02	9.381027e+02	9.071032e+02	9.029849e+02	9.220048e+02	8.816255e+02	9.217764e+02	9.258360e+02
					9.536105e+02	9.402178e+02	9.443118e+02	9.327000e+02	9.293695e+02	8.303134e+02	8.769986e+02	8.549146e+02	8.363535e+02
					7.397576e+02	8.159529e+02	7.908328e+02	8.663391e+02	9.209571e+02	8.807508e+02	9.238232e+02	8.993656e+02	8.854145e+02
					9.303485e+02	9.736675e+02	9.632164e+02	9.764099e+02	9.526586e+02	9.871261e+02	1.002836e+03	1.003276e+03	1.003178e+03
					1.002848e+03	1.003664e+03	1.000670e+03	9.990519e+02	1.002669e+03	1.000983e+03	9.997846e+02	1.000746e+03	9.934988e+02
					9.167922e+02	9.809165e+02	8.594027e+02	9.039611e+02	8.742403e+02	8.841107e+02	8.394527e+02	8.126681e+02	7.583134e+02
					7.872050e+02	8.151906e+02	8.539584e+02	7.895494e+02	8.780262e+02	9.838102e+02	9.723212e+02	9.621265e+02	9.245153e+02
					9.410876e+02	9.872587e+02	9.765281e+02	9.202834e+02	9.033893e+02	8.704133e+02	9.716559e+02	9.292607e+02	9.580172e+02
					9.669266e+02	9.382008e+02	9.484569e+02	9.923257e+02	9.979666e+02	1.000253e+03	9.984678e+02	9.931096e+02	9.956180e+02
					9.991673e+02	9.982182e+02	9.947348e+02	9.761646e+02	9.633610e+02	9.531827e+02	9.701466e+02	9.793230e+02	9.566720e+02
					9.691893e+02	1.000862e+03	1.002703e+03	1.001778e+03	9.768696e+02	9.637210e+02	9.519764e+02	1.001204e+03	1.002874e+03
					9.935234e+02	9.625497e+02	9.991515e+02	9.977141e+02	9.801636e+02	1.003173e+03	1.003425e+03	1.002771e+03	1.001412e+03
					1.002190e+03	1.003595e+03	1.003516e+03	1.002520e+03	9.813587e+02	9.902844e+02	9.806521e+02	9.836560e+02	9.918731e+02
					9.444391e+02	9.856143e+02	9.922178e+02	9.891375e+02	9.745745e+02	9.921342e+02	9.960184e+02	9.580280e+02	9.543753e+02
					9.076730e+02	9.725092e+02	9.832772e+02	9.805683e+02	9.250675e+02	9.547294e+02	8.710120e+02	9.606307e+02	9.948752e+02