<?xml version="1.0"?>

<!--
CSMP_Simulation
-->

<VTKFile type="UnstructuredGrid" version="1.0" byte_order="LittleEndian">
	<UnstructuredGrid>
		<Piece NumberOfPoints="2922" NumberOfCells="5619">
			<Points>
				<DataArray type="Float64" Name="Position" NumberOfComponents="3" format="ascii">
					1.062348e+04	-6.219427e+03	0.000000e+00	1.328123e+04	-3.388001e+03	0.000000e+00	6.533000e+03	-2.871000e+03	0.000000e+00	8.993999e+03	3.450022e+02	0.000000e+00
					6.434000e+03	-6.251000e+03	0.000000e+00	6.415000e+03	-1.312000e+03	0.000000e+00	8.891000e+03	-1.610000e+02	0.000000e+00	1.593372e+04	-6.223812e+03	0.000000e+00
					1.243124e+04	-5.182061e+03	0.000000e+00	1.180818e+04	-6.661451e+03	0.000000e+00	1.199040e+04	-6.569837e+03	0.000000e+00	1.186573e+04	-6.450233e+03	0.000000e+00
					1.224666e+04	-6.222517e+03	0.000000e+00	1.208180e+04	-6.360720e+03	0.000000e+00	1.135568e+04	-6.216921e+03	0.000000e+00	1.177466e+04	-5.800292e+03	0.000000e+00
					1.484109e+03	2.369937e+02	0.000000e+00	1.048845e+04	-4.576829e+03	0.000000e+00	5.088007e+03	2.164612e+02	0.000000e+00	1.616065e+04	6.885872e+02	0.000000e+00
					5.856588e+03	2.844799e+02	0.000000e+00	5.964146e+03	2.322470e+02	0.000000e+00	1.285384e+04	-8.473227e+03	0.000000e+00	6.554646e+03	2.976259e+02	0.000000e+00
					6.220259e+03	3.810972e+02	0.000000e+00	2.455667e+03	2.604214e+02	0.000000e+00	1.185441e+04	-8.594387e+03	0.000000e+00	8.953729e+02	2.424411e+02	0.000000e+00
					1.642061e+04	5.389531e+02	0.000000e+00	9.022812e+03	5.486281e+02	0.000000e+00	1.072547e+04	-4.265213e+03	0.000000e+00	1.596156e+04	-4.568462e+03	0.000000e+00
					1.049681e+04	-6.339904e+03	0.000000e+00	1.229884e+04	9.679014e+02	0.000000e+00	1.346081e+04	9.303555e+02	0.000000e+00	7.674576e+03	2.576962e+02	0.000000e+00
					8.121128e+03	2.577928e+02	0.000000e+00	8.390419e+03	2.530714e+02	0.000000e+00	1.759058e+04	3.107264e+02	0.000000e+00	1.283469e+04	-3.190105e+03	0.000000e+00
					1.310544e+04	-3.163050e+03	0.000000e+00	6.218396e+03	2.847346e+02	0.000000e+00	1.964998e+04	3.306567e+02	0.000000e+00	1.089832e+04	6.517557e+02	0.000000e+00
					9.482042e+03	5.002750e+02	0.000000e+00	1.461891e+04	-3.601876e+03	0.000000e+00	1.694475e+04	2.822433e+02	0.000000e+00	1.223129e+04	-8.439639e+03	0.000000e+00
					7.092101e+03	3.133630e+02	0.000000e+00	7.447673e+03	2.954910e+02	0.000000e+00	5.479449e+03	3.927924e+02	0.000000e+00	1.430834e+04	-8.440884e+03	0.000000e+00
					1.346187e+04	-3.101654e+03	0.000000e+00	1.466219e+04	5.912805e+02	0.000000e+00	1.431424e+04	6.995984e+02	0.000000e+00	1.198158e+04	-3.600157e+03	0.000000e+00
					1.519729e+04	6.008027e+02	0.000000e+00	1.732254e+04	2.914492e+02	0.000000e+00	1.847268e+04	5.552377e+02	0.000000e+00	1.373014e+04	-3.092539e+03	0.000000e+00
					1.598609e+04	-4.803680e+03	0.000000e+00	1.811668e+03	2.957238e+02	0.000000e+00	2.068111e+03	3.301681e+02	0.000000e+00	3.593477e+02	6.241832e-01	0.000000e+00
					1.315684e+04	9.290093e+02	0.000000e+00	9.757773e+03	6.136685e+02	0.000000e+00	1.013994e+04	6.394650e+02	0.000000e+00	9.949611e+03	7.276424e+02	0.000000e+00
					1.479179e+04	-3.977888e+03	0.000000e+00	1.474764e+04	-3.691732e+03	0.000000e+00	1.224233e+04	-3.775151e+03	0.000000e+00	1.235721e+04	-3.992361e+03	0.000000e+00
					1.239488e+04	-3.732875e+03	0.000000e+00	1.247959e+04	-3.889221e+03	0.000000e+00	1.489970e+04	-6.402044e+03	0.000000e+00	1.471371e+04	-6.063480e+03	0.000000e+00
					1.503558e+04	-6.243497e+03	0.000000e+00	1.463383e+04	-6.231790e+03	0.000000e+00	1.359516e+04	-6.370837e+03	0.000000e+00	1.336635e+04	-6.229341e+03	0.000000e+00
					1.486979e+04	-7.470250e+03	0.000000e+00	1.455711e+04	-7.489929e+03	0.000000e+00	1.120299e+04	-4.942350e+03	0.000000e+00	1.218357e+04	-7.531530e+03	0.000000e+00
					1.251446e+04	-7.480192e+03	0.000000e+00	1.240108e+04	-7.647510e+03	0.000000e+00	1.239322e+04	-7.293615e+03	0.000000e+00	1.368325e+04	-7.242141e+03	0.000000e+00
					1.217897e+04	-5.028812e+03	0.000000e+00	1.378964e+04	8.854108e+02	0.000000e+00	1.351945e+04	-3.856343e+03	0.000000e+00	1.333151e+04	-3.674419e+03	0.000000e+00
					1.350782e+04	-3.520236e+03	0.000000e+00	1.479244e+04	-4.909493e+03	0.000000e+00	1.380050e+04	-4.989557e+03	0.000000e+00	3.084262e+03	3.746820e+02	0.000000e+00
					3.006144e+03	2.572346e+02	0.000000e+00	1.252005e+03	2.691829e+02	0.000000e+00	1.642126e+03	2.829086e+02	0.000000e+00	8.235090e+03	4.169793e+02	0.000000e+00
					1.537108e+04	-5.728762e+03	0.000000e+00	1.550100e+04	-5.598568e+03	0.000000e+00	1.543359e+04	-5.440257e+03	0.000000e+00	1.516251e+04	-4.367050e+03	0.000000e+00
					1.542543e+04	-4.626431e+03	0.000000e+00	1.547978e+04	-4.435709e+03	0.000000e+00	1.421355e+04	-5.774419e+03	0.000000e+00	1.398427e+04	-5.607986e+03	0.000000e+00
					1.433859e+04	-5.644592e+03	0.000000e+00	1.422646e+04	-5.431404e+03	0.000000e+00	1.278519e+04	-5.034132e+03	0.000000e+00	1.297347e+04	-4.888217e+03	0.000000e+00
					1.308886e+04	-5.058455e+03	0.000000e+00	1.295570e+04	-5.179625e+03	0.000000e+00	1.371210e+04	-5.548806e+03	0.000000e+00	1.306586e+04	-5.417419e+03	0.000000e+00
					1.398961e+04	-5.001093e+03	0.000000e+00	1.423737e+04	-5.238687e+03	0.000000e+00	1.553662e+04	-5.035070e+03	0.000000e+00	1.541510e+04	-5.176839e+03	0.000000e+00
					1.433199e+04	-4.490070e+03	0.000000e+00	1.772795e+04	4.701005e+02	0.000000e+00	1.301714e+04	-3.340203e+03	0.000000e+00	1.291928e+04	-6.673458e+03	0.000000e+00
					1.305404e+04	-6.847013e+03	0.000000e+00	1.275393e+04	-6.763001e+03	0.000000e+00	1.299225e+04	-6.992535e+03	0.000000e+00	1.111766e+04	-6.671729e+03	0.000000e+00
					1.100675e+04	-6.816450e+03	0.000000e+00	1.117046e+04	-6.969377e+03	0.000000e+00	1.205000e+04	-8.078535e+03	0.000000e+00	1.184148e+04	-7.859306e+03	0.000000e+00
					1.196430e+04	-8.231484e+03	0.000000e+00	1.298170e+04	-7.885249e+03	0.000000e+00	1.295062e+04	-8.221395e+03	0.000000e+00	1.309178e+04	-8.017537e+03	0.000000e+00
					1.120470e+04	-5.453850e+03	0.000000e+00	1.115255e+04	-5.738876e+03	0.000000e+00	1.126426e+04	-5.604117e+03	0.000000e+00	1.184009e+04	-5.022972e+03	0.000000e+00
					1.172669e+04	-4.862486e+03	0.000000e+00	1.153323e+04	-4.959783e+03	0.000000e+00	1.175756e+04	-5.171477e+03	0.000000e+00	1.534244e+04	-6.934844e+03	0.000000e+00
					1.455437e+04	-8.098472e+03	0.000000e+00	1.476956e+04	-7.877258e+03	0.000000e+00	1.464624e+04	-8.340289e+03	0.000000e+00	1.404268e+04	-7.444684e+03	0.000000e+00
					1.421918e+04	-7.630822e+03	0.000000e+00	1.428388e+04	-7.472196e+03	0.000000e+00	1.526650e+04	-7.239097e+03	0.000000e+00	1.513630e+04	-7.368500e+03	0.000000e+00
					1.581589e+04	-5.652546e+03	0.000000e+00	1.296440e+04	-6.343040e+03	0.000000e+00	1.295470e+04	-6.059130e+03	0.000000e+00	1.303797e+04	-6.200013e+03	0.000000e+00
					1.273442e+04	-6.210589e+03	0.000000e+00	1.360396e+04	-6.962240e+03	0.000000e+00	1.362392e+04	-6.655270e+03	0.000000e+00	1.339020e+04	-6.812359e+03	0.000000e+00
					6.442692e+03	4.405175e+02	0.000000e+00	3.840145e+03	2.404374e+02	0.000000e+00	3.475756e+03	2.459832e+02	0.000000e+00	3.582548e+03	3.131050e+02	0.000000e+00
					1.179383e+04	-4.550717e+03	0.000000e+00	1.173986e+04	-5.484162e+03	0.000000e+00	1.062189e+04	-5.748233e+03	0.000000e+00	1.180024e+04	-3.998124e+03	0.000000e+00
					1.173389e+04	-3.844468e+03	0.000000e+00	1.197836e+04	-3.861204e+03	0.000000e+00	1.188099e+04	-3.736811e+03	0.000000e+00	1.137465e+04	-4.416604e+03	0.000000e+00
					1.124799e+04	-4.291994e+03	0.000000e+00	1.108948e+04	-4.439061e+03	0.000000e+00	1.120866e+04	-4.578218e+03	0.000000e+00	1.076080e+04	-6.185724e+03	0.000000e+00
					1.052158e+04	-6.171076e+03	0.000000e+00	1.061654e+04	-6.082875e+03	0.000000e+00	1.068627e+04	-6.344822e+03	0.000000e+00	1.547934e+04	-6.007495e+03	0.000000e+00
					1.239362e+04	-8.015408e+03	0.000000e+00	1.231714e+04	-8.236339e+03	0.000000e+00	1.259828e+04	-8.069267e+03	0.000000e+00	1.701531e+04	4.509240e+02	0.000000e+00
					1.277290e+04	-3.855596e+03	0.000000e+00	1.248342e+04	-4.291681e+03	0.000000e+00	1.951687e+04	4.566190e+02	0.000000e+00	1.409639e+04	-3.762137e+03	0.000000e+00
					1.395297e+04	-3.853813e+03	0.000000e+00	1.426096e+04	-3.882789e+03	0.000000e+00	1.412655e+04	-4.015160e+03	0.000000e+00	1.454529e+04	-4.454906e+03	0.000000e+00
					1.477335e+04	-4.577894e+03	0.000000e+00	1.473337e+04	-4.284850e+03	0.000000e+00	1.486818e+04	-4.392328e+03	0.000000e+00	1.182077e+04	-6.079763e+03	0.000000e+00
					1.161805e+04	-6.234353e+03	0.000000e+00	1.190807e+04	-6.249025e+03	0.000000e+00	1.174207e+04	-6.340720e+03	0.000000e+00	1.216930e+04	-5.632604e+03	0.000000e+00
					1.242431e+04	-5.486649e+03	0.000000e+00	1.241345e+04	-5.774949e+03	0.000000e+00	1.249642e+04	-5.631837e+03	0.000000e+00	1.225177e+04	-5.774741e+03	0.000000e+00
					1.257980e+04	-5.777980e+03	0.000000e+00	1.225809e+04	-5.482228e+03	0.000000e+00	1.256570e+04	-5.502870e+03	0.000000e+00	1.238428e+04	-6.062964e+03	0.000000e+00
					1.282796e+04	-5.599574e+03	0.000000e+00	1.196367e+04	-6.067125e+03	0.000000e+00	1.167268e+04	-6.097839e+03	0.000000e+00	1.277630e+04	-6.604007e+03	0.000000e+00
					1.252397e+04	-6.308287e+03	0.000000e+00	1.280518e+04	-6.343281e+03	0.000000e+00	1.265315e+04	-6.346342e+03	0.000000e+00	1.271475e+04	-6.477527e+03	0.000000e+00
					1.263261e+04	-6.625855e+03	0.000000e+00	1.667927e+04	4.741056e+02	0.000000e+00	1.612116e+04	5.619883e+02	0.000000e+00	1.487289e+04	5.672211e+02	0.000000e+00
					1.548362e+04	5.952377e+02	0.000000e+00	1.585212e+04	5.965489e+02	0.000000e+00	1.757404e+04	5.394732e+02	0.000000e+00	1.743589e+04	4.800519e+02	0.000000e+00
					1.795083e+04	4.435474e+02	0.000000e+00	1.049310e+04	6.378382e+02	0.000000e+00	9.219915e+03	4.816059e+02	0.000000e+00	1.511397e+04	-4.544577e+03	0.000000e+00
					1.494532e+04	-4.564542e+03	0.000000e+00	1.454020e+04	-4.749504e+03	0.000000e+00	1.486489e+04	-4.724778e+03	0.000000e+00	1.460243e+04	-4.599803e+03	0.000000e+00
					1.446230e+04	-4.653005e+03	0.000000e+00	1.489979e+04	-3.662624e+03	0.000000e+00	1.534625e+04	-4.286436e+03	0.000000e+00	1.518403e+04	-4.162332e+03	0.000000e+00
[...]
			<PointData Scalars="bulk fluid density">
				<DataArray type="Float64" Name="bulk fluid density" NumberOfComponents="1" format="ascii">
					1.563981e+02	1.120378e+02	8.965735e+02	9.921784e+02	5.590584e+02	9.614052e+02	7.897417e+02	1.548842e+02
					3.280242e+02	4.097604e+02	4.059272e+02	4.006986e+02	3.907241e+02	3.968565e+02	3.901653e+02	3.655488e+02	9.999941e+02
					1.932681e+02	9.755243e+02	9.993911e+02	9.355172e+02	9.187979e+02	3.031180e+02	9.579992e+02	9.863225e+02	9.998583e+02
					2.773351e+02	9.996210e+02	9.994966e+02	9.981397e+02	2.767152e+02	1.940123e+02	1.544401e+02	9.998739e+02	9.998108e+02
					9.840654e+02	9.768877e+02	9.918768e+02	1.000471e+03	1.573570e+02	1.025260e+02	9.659934e+02	9.999337e+02	9.992347e+02
					9.990594e+02	1.052165e+02	9.990124e+02	4.235953e+02	9.900369e+02	9.891332e+02	9.964493e+02	4.216569e+02	1.145599e+02
					9.996649e+02	9.998809e+02	1.051746e+02	9.989410e+02	1.000127e+03	9.999233e+02	1.768715e+02	1.535814e+02	9.999414e+02
					9.998630e+02	9.967235e+02	1.000064e+03	9.995293e+02	9.998767e+02	9.995974e+02	2.486301e+02	1.084684e+02	2.316628e+02
					2.570932e+02	2.317295e+02	2.507675e+02	3.992070e+02	3.833784e+02	3.921980e+02	3.916426e+02	3.976716e+02	3.913236e+02
					4.426655e+02	4.434146e+02	3.130024e+02	4.446627e+02	4.427638e+02	4.491304e+02	4.355842e+02	4.337800e+02	3.187107e+02
					9.996926e+02	2.495519e+02	2.386071e+02	2.285564e+02	3.124817e+02	3.170081e+02	9.993331e+02	9.996124e+02	9.997590e+02
					9.998822e+02	9.936901e+02	3.621819e+02	3.540926e+02	3.444288e+02	2.710600e+02	2.873758e+02	1.187802e+02	3.648230e+02
					3.544323e+02	3.568048e+02	3.436945e+02	3.192978e+02	3.106695e+02	3.208744e+02	3.280960e+02	3.507395e+02	3.424788e+02
					3.177494e+02	3.320428e+02	3.197726e+02	3.285215e+02	2.874565e+02	9.998225e+02	9.736735e+01	4.105578e+02	4.177805e+02
					4.142486e+02	4.236800e+02	4.099407e+02	4.134728e+02	4.209200e+02	4.575595e+02	4.442449e+02	3.247539e+02	4.579449e+02
					4.681732e+02	4.627658e+02	3.438316e+02	3.614021e+02	3.530673e+02	3.181946e+02	3.085431e+02	3.142605e+02	3.270643e+02
					4.213950e+02	4.607408e+02	4.347535e+02	3.053195e+02	4.416398e+02	4.487576e+02	4.427153e+02	4.316291e+02	4.377925e+02
					3.319849e+02	3.963215e+02	3.826253e+02	3.899201e+02	3.903415e+02	4.225699e+02	4.099358e+02	4.164115e+02	9.916648e+02
					9.999488e+02	9.988316e+02	9.994152e+02	2.900348e+02	3.459928e+02	1.408342e+02	2.470960e+02	1.113259e+02	2.338218e+02
					1.104374e+02	2.760142e+02	1.183537e+02	1.198823e+02	2.858489e+02	3.753150e+02	1.462293e+02	1.513926e+02	1.704347e+02
					3.798340e+02	4.619146e+02	4.375364e+02	4.642792e+02	9.993339e+02	2.491139e+02	2.749722e+02	9.996571e+02	2.352073e+02
					2.492435e+02	2.489760e+02	2.591688e+02	2.854272e+02	2.927804e+02	2.753743e+02	2.817556e+02	3.834641e+02	3.910628e+02
					3.918094e+02	3.958631e+02	3.553078e+02	3.464745e+02	3.642671e+02	3.554069e+02	3.641849e+02	3.645218e+02	3.461281e+02
					3.475259e+02	3.826415e+02	3.535284e+02	3.827035e+02	3.845210e+02	4.076005e+02	3.946601e+02	3.962928e+02	3.963883e+02
					4.021342e+02	4.084825e+02	9.993189e+02	9.998438e+02	9.991115e+02	9.994603e+02	9.997928e+02	9.995273e+02	9.996380e+02
					1.000023e+03	9.982172e+02	9.983243e+02	2.906246e+02	2.920150e+02	3.029167e+02	3.015139e+02	2.940414e+02	2.971573e+02
					1.731288e+02	1.180114e+02	1.143755e+02	1.103717e+02	1.141227e+02	1.847708e+02	1.209444e+02	2.703281e+02	2.485807e+02
					2.724015e+02	2.306695e+02	1.117636e+02	2.767298e+02	2.666333e+02	2.696089e+02	2.582071e+02	2.388537e+02	2.610287e+02
					2.430747e+02	2.556276e+02	1.037096e+02	2.312944e+02	2.786858e+02	2.624566e+02	2.587366e+02	2.781540e+02	2.710295e+02
					2.819233e+02	9.992539e+02	9.997450e+02	9.997968e+02	2.936625e+02	3.027277e+02	3.105999e+02	1.075332e+02	2.581452e+02
					2.670330e+02	2.576062e+02	2.400126e+02	1.061994e+02	1.030790e+02	9.564212e+01	2.372848e+02	2.195661e+02	3.121497e+02
					3.038573e+02	4.646132e+02	4.581871e+02	4.652510e+02	4.605001e+02	4.588517e+02	4.073418e+02	2.979212e+02	4.148893e+02
					4.117551e+02	3.591740e+02	3.725125e+02	3.821216e+02	3.710051e+02	3.979709e+02	4.054665e+02	3.967640e+02	3.809278e+02
					3.744030e+02	3.730405e+02	3.636493e+02	3.839572e+02	3.985976e+02	4.072636e+02	3.990188e+02	1.686006e+02	1.503318e+02
					1.380007e+02	1.218853e+02	3.125677e+02	1.239591e+02	3.067537e+02	3.143273e+02	1.339449e+02	1.427315e+02	1.346259e+02
					1.179517e+02	1.357309e+02	2.780779e+02	2.850520e+02	3.068640e+02	1.208942e+02	2.657251e+02	2.775396e+02	2.562708e+02
					1.049392e+02	1.209904e+02	1.652174e+02	2.464027e+02	2.732938e+02	1.220106e+02	2.588938e+02	2.708583e+02	1.498736e+02
					1.162411e+02	1.147125e+02	3.811313e+02	1.463143e+02	1.526621e+02	3.566991e+02	3.291843e+02	1.412300e+02	2.728804e+02
					2.833407e+02	2.821160e+02	2.732294e+02	2.738069e+02	2.551596e+02	2.652562e+02	2.632485e+02	9.980887e+02	9.994550e+02
					9.996837e+02	9.993162e+02	9.881152e+02	9.267422e+02	9.818881e+02	9.550572e+02	9.531874e+02	9.606143e+02	4.616537e+02
					4.211229e+02	3.826417e+02	3.798300e+02	3.587257e+02	3.687211e+02	3.863372e+02	3.717503e+02	3.635780e+02	3.979765e+02
					3.974736e+02	4.033968e+02	4.050840e+02	4.086203e+02	3.824926e+02	3.829930e+02	3.623175e+02	3.627790e+02	3.727217e+02
					3.623536e+02	3.951651e+02	3.981185e+02	4.103906e+02	4.109408e+02	3.983738e+02	4.030548e+02	4.046241e+02	4.109116e+02
					1.292171e+02	1.807085e+02	1.540614e+02	1.645561e+02	3.948584e+02	3.586451e+02	3.845676e+02	1.589331e+02	1.314631e+02
					1.331908e+02	1.349045e+02	1.447450e+02	1.354017e+02	3.470154e+02	1.453356e+02	1.473373e+02	3.640739e+02	3.749978e+02
					3.698036e+02	1.593671e+02	4.407232e+02	4.477382e+02	4.351018e+02	4.487201e+02	4.481195e+02	4.364987e+02	4.385010e+02
					4.489485e+02	4.553926e+02	4.607319e+02	4.473820e+02	4.531352e+02	4.396444e+02	4.584870e+02	4.565855e+02	3.964555e+02
					4.329233e+02	4.365289e+02	4.238972e+02	4.376624e+02	4.396412e+02	4.287588e+02	4.285385e+02	4.224235e+02	4.162174e+02
					4.231646e+02	4.181542e+02	4.109094e+02	4.099856e+02	2.884000e+02	3.919508e+02	1.732113e+02	4.124424e+02	4.073617e+02
					4.016919e+02	4.035270e+02	4.088945e+02	3.950097e+02	3.838848e+02	4.139015e+02	4.213209e+02	2.757651e+02	4.289318e+02
					4.366453e+02	4.239751e+02	4.273240e+02	4.218210e+02	4.168516e+02	4.196512e+02	4.137672e+02	3.985559e+02	4.107631e+02
					4.067971e+02	4.159110e+02	4.216470e+02	4.274490e+02	4.137264e+02	4.364086e+02	4.332440e+02	4.248130e+02	3.254929e+02
					3.264883e+02	3.376583e+02	3.434847e+02	3.338738e+02	3.835000e+02	3.858915e+02	3.735148e+02	3.738362e+02	3.640469e+02
					3.788838e+02	3.585488e+02	3.539969e+02	3.258931e+02	2.895714e+02	2.873702e+02	3.054656e+02	2.946280e+02	2.981306e+02
					2.885466e+02	3.063552e+02	3.027793e+02	3.453802e+02	3.332814e+02	3.240860e+02	3.347842e+02	3.441729e+02	3.257939e+02
					3.219260e+02	3.649472e+02	3.572561e+02	3.622913e+02	3.703184e+02	3.770698e+02	3.716712e+02	3.432729e+02	3.385075e+02
					3.608713e+02	3.440072e+02	3.286076e+02	3.354985e+02	3.458938e+02	3.273791e+02	3.276274e+02	3.368721e+02	3.459686e+02
					3.364575e+02	3.278850e+02	3.624420e+02	3.721614e+02	3.662607e+02	3.877667e+02	3.733400e+02	3.810143e+02	3.694359e+02
					3.858137e+02	3.781358e+02	3.820036e+02	2.925677e+02	3.090620e+02	3.005424e+02	2.901590e+02	3.094740e+02	2.995961e+02
					3.099813e+02	2.919517e+02	1.546374e+02	4.088355e+02	3.854582e+02	1.337371e+02	4.030965e+02	3.896808e+02	3.958053e+02
					2.741243e+02	4.125722e+02	4.237992e+02	4.297918e+02	4.359780e+02	4.240980e+02	4.356286e+02	4.471157e+02	4.354244e+02
					4.476993e+02	4.226176e+02	4.167189e+02	4.237619e+02	4.171509e+02	4.114761e+02	4.104628e+02	4.234196e+02	4.473828e+02
					4.596017e+02	4.542370e+02	4.480457e+02	4.556210e+02	4.578169e+02	4.527253e+02	4.294192e+02	4.228843e+02	4.271102e+02
					4.307859e+02	4.365477e+02	4.657908e+02	4.621502e+02	4.624736e+02	4.623016e+02	4.654209e+02	3.020573e+02	4.539400e+02
					4.655163e+02	3.208041e+02	4.652965e+02	4.677239e+02	4.644173e+02	4.672224e+02	4.667519e+02	4.531508e+02	4.477936e+02
					4.614235e+02	4.592083e+02	4.463380e+02	4.578406e+02	4.492051e+02	4.463959e+02	4.529464e+02	4.254775e+02	4.355462e+02
					4.320790e+02	4.285402e+02	4.242647e+02	4.343159e+02	4.364542e+02	4.118471e+02	3.978867e+02	4.037576e+02	4.147812e+02
					3.980777e+02	4.387907e+02	3.471009e+02	4.457988e+02	4.476282e+02	4.449198e+02	3.467136e+02	3.529224e+02	3.154105e+02
					4.176125e+02	4.187777e+02	4.114035e+02	4.238922e+02	4.283865e+02	1.672224e+02	4.146239e+02	3.967785e+02	4.361734e+02
					4.194822e+02	4.156919e+02	4.077789e+02	4.567261e+02	4.440474e+02	4.554014e+02	4.504101e+02	4.562008e+02	4.433924e+02
					4.308481e+02	4.359541e+02	4.245173e+02	4.276187e+02	4.347630e+02	4.227480e+02	4.311540e+02	4.340132e+02	1.332690e+02
					1.040864e+02	2.166433e+02	2.381027e+02	1.051725e+02	9.996942e+02	1.055340e+02	9.994583e+02	9.997310e+02	9.995620e+02
					9.995585e+02	9.994638e+02	1.003040e+03	1.001870e+03	1.002233e+03	1.002573e+03	1.003189e+03	9.953869e+02	1.001602e+03
					1.002609e+03	2.144697e+02	2.125682e+02	2.622047e+02	2.645467e+02	9.996207e+02	1.002466e+03	9.959481e+02	1.000897e+03
					9.998794e+02	2.550740e+02	2.713839e+02	2.655638e+02	2.356555e+02	2.136222e+02	2.328359e+02	1.037229e+02	9.858386e+01
					1.009553e+02	1.046115e+02	2.912636e+02	2.733397e+02	2.804718e+02	2.834293e+02	2.750679e+02	2.955629e+02	1.437250e+02
					1.591460e+02	1.271616e+02	3.434514e+02	3.372434e+02	3.106896e+02	3.251148e+02	1.288960e+02	3.442629e+02	3.290380e+02
					3.080465e+02	2.999992e+02	3.115808e+02	2.940803e+02	2.703505e+02	2.868368e+02	2.765049e+02	2.815710e+02	2.737465e+02
					2.939141e+02	2.751436e+02	2.876113e+02	2.762154e+02	2.564930e+02	2.640347e+02	2.726487e+02	2.664146e+02	2.853272e+02
					3.067504e+02	2.887657e+02	2.931150e+02	3.111297e+02	2.962005e+02	3.396475e+02	3.247781e+02	3.832074e+02	3.630660e+02
					3.436558e+02	3.273736e+02	2.876397e+02	3.050562e+02	2.905093e+02	2.955616e+02	3.080178e+02	3.447267e+02	3.531321e+02
					3.511649e+02	3.444669e+02	3.631228e+02	3.841296e+02	3.361289e+02	3.441448e+02	3.253545e+02	3.355559e+02	3.237846e+02
					3.283964e+02	3.439056e+02	3.264599e+02	3.449875e+02	3.362306e+02	3.284090e+02	3.325123e+02	3.052415e+02	3.140054e+02
					2.983499e+02	3.049417e+02	2.910398e+02	3.089733e+02	3.137531e+02	3.192074e+02	3.117137e+02	3.373730e+02	3.470514e+02
					3.454846e+02	3.446883e+02	3.505943e+02	3.670405e+02	3.637788e+02	3.836107e+02	1.231989e+02	1.509980e+02	3.002312e+02
					2.800854e+02	2.989074e+02	3.110976e+02	3.507598e+02	3.651971e+02	3.517829e+02	3.487187e+02	3.603622e+02	3.295196e+02
					3.152916e+02	3.440571e+02	3.265572e+02	3.492547e+02	3.330622e+02	3.373065e+02	3.409284e+02	9.990466e+02	9.962342e+02
					9.998390e+02	9.971612e+02	9.966750e+02	9.960670e+02	9.989152e+02	9.993590e+02	9.996056e+02	9.979729e+02	9.915768e+02
					9.916883e+02	9.994843e+02	9.995152e+02	9.990075e+02	9.996656e+02	9.995428e+02	2.893117e+02	2.959191e+02	3.085921e+02
					3.116804e+02	3.290096e+02	3.111628e+02	3.287322e+02	3.181778e+02	3.202220e+02	3.369863e+02	3.442863e+02	3.295233e+02
					3.367220e+02	3.314123e+02	3.074986e+02	3.282988e+02	3.100466e+02	3.206395e+02	2.331731e+02	2.313073e+02	2.117598e+02
					9.845240e+01	2.532730e+02	2.454915e+02	2.331331e+02	2.467525e+02	2.526896e+02	2.560186e+02	2.620970e+02	2.689145e+02
					9.994572e+02	4.526419e+02	4.573565e+02	4.450586e+02	4.428621e+02	4.400360e+02	4.478154e+02	4.413554e+02	4.386102e+02
					4.668987e+02	4.388338e+02	4.357210e+02	4.490394e+02	4.504442e+02	4.422521e+02	4.413560e+02	2.962141e+02	4.480994e+02
					4.333898e+02	4.256859e+02	4.379561e+02	4.304445e+02	4.480110e+02	3.908388e+02	3.782686e+02	3.843654e+02	3.719082e+02
					3.916637e+02	3.981011e+02	3.904395e+02	1.626447e+02	3.838016e+02	3.991535e+02	3.914218e+02	4.001290e+02	3.830915e+02
					3.892487e+02	3.613996e+02	4.123565e+02	4.526822e+02	2.379113e+02	2.598474e+02	2.522700e+02	9.998004e+02	4.046018e+02
					4.015386e+02	4.094217e+02	3.966074e+02	3.991719e+02	4.035916e+02	6.292236e+02	6.472888e+02	6.275246e+02	9.866072e+02
					9.782899e+02	9.821194e+02	9.935285e+02	9.542809e+02	9.487119e+02	9.611603e+02	9.679286e+02	9.426543e+02	9.403383e+02
					9.489793e+02	9.526100e+02	8.162249e+02	7.872548e+02	8.347832e+02	8.139564e+02	9.731024e+02	9.618822e+02	9.531864e+02
					9.995805e+02	9.681112e+02	8.017559e+02	8.031011e+02	7.364955e+02	1.000131e+03	9.997107e+02	1.000933e+03	8.874784e+02
					9.014829e+02	8.507424e+02	2.658874e+02	1.023382e+02	2.502458e+02	8.924673e+02	9.532637e+02	8.842207e+02	5.843294e+02
					5.452464e+02	5.556007e+02	5.036888e+02	2.662976e+02	2.692604e+02	2.687539e+02	2.911733e+02	2.724706e+02	2.702716e+02
					4.060094e+02	3.721369e+02	3.928697e+02	3.916056e+02	2.674710e+02	2.625630e+02	2.976197e+02	2.934154e+02	1.774433e+02
					8.146084e+02	8.127721e+02	7.908723e+02	8.375262e+02	7.932411e+02	8.058774e+02	7.753784e+02	8.279527e+02	6.849760e+02
					5.085782e+02	3.093100e+02	1.798538e+02	2.815748e+02	2.796778e+02	8.289173e+02	7.966150e+02	7.985780e+02	8.894034e+02
					9.142848e+02	8.790749e+02	4.287155e+02	1.488672e+02	4.390087e+02	3.316016e+02	7.054636e+02	6.332758e+02	8.576854e+02
					8.785991e+02	7.069772e+02	7.368900e+02	6.682302e+02	8.089945e+02	2.889180e+02	4.967807e+02	3.612897e+02	6.813560e+02
					7.006127e+02	2.976510e+02	2.806346e+02	3.033035e+02	2.740370e+02	3.575724e+02	4.039462e+02	3.985617e+02	2.900691e+02
					3.009287e+02	2.819835e+02	3.027555e+02	2.777988e+02	3.028020e+02	2.721522e+02	3.928258e+02	3.899758e+02	4.320752e+02
					4.426541e+02	4.390521e+02	4.551389e+02	4.281660e+02	2.722405e+02	4.529980e+02	2.718971e+02	4.413746e+02	4.413053e+02
					4.514704e+02	3.179913e+02	2.746960e+02	2.785524e+02	2.658664e+02	2.747538e+02	2.978840e+02	3.594234e+02	4.012496e+02
					3.582840e+02	3.357829e+02	3.678266e+02	3.567014e+02	4.074051e+02	3.927384e+02	3.976571e+02	3.704012e+02	3.728806e+02
					3.382495e+02	9.764564e+02	1.000960e+03	9.958499e+02	1.002447e+03	8.780356e+02	8.125244e+02	7.299740e+02	8.496982e+02
					9.996125e+02	1.000761e+03	9.995676e+02	9.668569e+02	9.983030e+02	9.288261e+02	9.574299e+02	9.455515e+02	8.666275e+02
					8.834728e+02	8.318320e+02	9.033790e+02	8.837114e+02	9.016951e+02	9.993716e+02	9.953182e+02	1.000215e+03	1.000630e+03
					2.591442e+02	2.423677e+02	2.042081e+02	2.960085e+02	5.946865e+02	6.518561e+02	7.960780e+02	7.719843e+02	6.083346e+02
					3.185631e+02	3.367337e+02	3.201124e+02	3.001773e+02	9.712933e+02	9.227156e+02	7.690905e+02	8.692481e+02	1.000229e+03
					8.005957e+02	9.615446e+02	7.912344e+02	7.859317e+02	8.910431e+02	8.759155e+02	8.884865e+02	8.786471e+02	8.899402e+02
					9.147878e+02	9.043749e+02	9.484683e+02	9.647833e+02	9.547710e+02	9.580189e+02	9.714808e+02	9.444184e+02	9.286436e+02
					9.565290e+02	9.331372e+02	9.695804e+02	9.655983e+02	8.976282e+02	9.170682e+02	8.941931e+02	8.030803e+02	7.790410e+02
					8.085516e+02	8.290757e+02	7.259306e+02	7.053934e+02	6.567792e+02	6.875714e+02	7.869870e+02	8.114036e+02	8.257776e+02
					8.124963e+02	9.077987e+02	8.758485e+02	8.867920e+02	8.671105e+02	1.001861e+03	1.000671e+03	7.070617e+02	7.258169e+02
					9.430081e+02	9.144984e+02	9.208568e+02	9.998435e+02	1.000970e+03	9.927207e+02	9.842608e+02	9.294610e+02	9.015554e+02
					9.405125e+02	9.216511e+02	8.497162e+02	8.428406e+02	8.383741e+02	9.454319e+02	9.292787e+02	9.381708e+02	9.986435e+02
					9.917043e+02	9.904216e+02	1.000902e+03	9.854242e+02	9.658691e+02	9.766563e+02	9.994223e+02	9.971080e+02	9.699850e+02
					9.815591e+02	9.122448e+02	8.905230e+02	9.416111e+02	9.194843e+02	9.690593e+02	9.908222e+02	1.001747e+03	9.094111e+02
					7.208260e+02	6.674106e+02	7.853780e+02	5.770816e+02	2.755181e+02	6.615840e+02	6.188241e+02	5.555979e+02	3.933580e+02
					6.741594e+02	5.949766e+02	6.247725e+02	6.690926e+02	5.295046e+02	4.355403e+02	4.912362e+02	3.631094e+02	4.224631e+02
					3.331291e+02	4.497146e+02	3.578302e+02	4.450689e+02	4.459751e+02	3.673904e+02	3.984952e+02	4.994241e+02	2.482693e+02
					5.754243e+02	6.141024e+02	3.474795e+02	2.892128e+02	3.704559e+02	3.508352e+02	3.279333e+02	3.272426e+02	4.949970e+02
					7.769419e+02	8.384274e+02	4.254946e+02	7.068720e+02	5.454701e+02	5.831236e+02	5.972584e+02	6.313077e+02	7.345644e+02
					6.039893e+02	8.334082e+02	6.581902e+02	8.091215e+02	8.720320e+02	8.352154e+02	7.769318e+02	9.118478e+02	9.301252e+02
					8.100630e+02	9.126963e+02	6.446752e+02	8.459924e+02	6.141926e+02	7.588183e+02	6.440837e+02	9.772341e+02	9.820844e+02
					9.502838e+02	9.379617e+02	9.831343e+02	9.660748e+02	9.733892e+02	9.444516e+02	9.525886e+02	9.540687e+02	9.397260e+02
					9.919347e+02	9.965374e+02	9.979063e+02	9.948694e+02	9.948680e+02	9.691449e+02	9.989348e+02	9.994500e+02	9.991960e+02
					9.907963e+02	9.896496e+02	9.950978e+02	9.718548e+02	9.855260e+02	9.570464e+02	9.738939e+02	9.485647e+02	9.575590e+02
					1.002110e+03	9.921425e+02	1.000859e+03	9.974976e+02	9.795925e+02	9.976604e+02	9.854434e+02	9.892972e+02	9.484532e+02
					8.556575e+02	8.585353e+02	8.686150e+02	9.402416e+02	9.453570e+02	8.985358e+02	9.439985e+02	9.453090e+02	8.958104e+02
					8.522710e+02	9.392785e+02	9.138116e+02	9.378434e+02	9.413996e+02	9.268911e+02	9.696567e+02	9.932082e+02	9.524282e+02
					9.637756e+02	1.001886e+03	1.000480e+03	1.001682e+03	9.990291e+02	1.000774e+03	1.000111e+03	9.875330e+02	8.732860e+02
					8.671835e+02	8.940027e+02	9.124779e+02	8.882743e+02	7.330594e+02	7.945461e+02	7.815938e+02	7.395934e+02	7.699000e+02
					7.445063e+02	9.037193e+02	8.725987e+02	9.037457e+02	8.550623e+02	8.878917e+02	8.411843e+02	8.739409e+02	8.571623e+02
					8.466250e+02	8.674491e+02	8.408385e+02	8.115215e+02	7.631416e+02	7.994586e+02	7.436852e+02	8.101000e+02	7.934388e+02
					8.357411e+02	8.193016e+02	8.101482e+02	7.965723e+02	9.095429e+02	6.785931e+02	7.227614e+02	7.003995e+02	6.810758e+02
					5.865153e+02	6.614978e+02	6.385387e+02	7.118207e+02	7.706219e+02	7.268716e+02	7.751269e+02	7.476654e+02	7.408159e+02
					7.889184e+02	9.001462e+02	8.467378e+02	8.895109e+02	8.271640e+02	9.743299e+02	1.002204e+03	9.970553e+02	1.001513e+03
					1.002239e+03	9.996070e+02	1.000655e+03	9.913737e+02	9.974276e+02	1.000934e+03	9.997816e+02	1.000411e+03	9.701532e+02
					8.938256e+02	8.672904e+02	7.892758e+02	8.355346e+02	7.643342e+02	7.829748e+02	7.365943e+02	6.641665e+02	6.356153e+02
					6.439627e+02	6.848109e+02	7.357198e+02	6.729715e+02	7.304783e+02	8.787148e+02	8.484331e+02	8.345569e+02	7.843556e+02
					7.971422e+02	9.185757e+02	8.712380e+02	7.858909e+02	7.561928e+02	7.286313e+02	8.776637e+02	8.370392e+02	8.583664e+02
					8.795497e+02	8.362658e+02	8.562345e+02	8.911340e+02	9.368528e+02	9.375845e+02	9.163727e+02	8.976061e+02	9.071025e+02
					9.188346e+02	9.311275e+02	9.137261e+02	8.520450e+02	8.293022e+02	8.132253e+02	8.472515e+02	8.622354e+02	8.214467e+02
					9.363543e+02	9.974815e+02	9.886695e+02	9.991539e+02	9.403616e+02	9.060812e+02	8.965438e+02	9.747233e+02	9.943154e+02
					9.559410e+02	9.201835e+02	9.689288e+02	9.671722e+02	9.471670e+02	9.732111e+02	9.856987e+02	9.800906e+02	9.328828e+02
					9.430111e+02	9.600932e+02	9.680534e+02	9.972536e+02	9.301237e+02	9.492943e+02	9.552482e+02	9.592204e+02	9.616495e+02
					9.035685e+02	9.323026e+02	9.605367e+02	9.293038e+02	8.722375e+02	9.296377e+02	9.157384e+02	8.296062e+02	9.122683e+02
					8.621806e+02	9.175538e+02	9.445499e+02	9.166608e+02	8.597297e+02	8.714548e+02	8.415562e+02	8.224504e+02	9.936644e+02
					8.622475e+02	9.188222e+02	9.014436e+02	8.115000e+02	9.202519e+02	8.841135e+02	9.321225e+02	8.376509e+02	7.979055e+02
					9.248115e+02	7.944530e+02	9.343100e+02	8.163906e+02	9.272778e+02	7.637783e+02	9.043995e+02	9.995878e+02	1.000514e+03
					1.000137e+03	1.001046e+03	9.819772e+02	9.998783e+02	9.983872e+02	9.876774e+02	9.967169e+02	9.317948e+02	9.068749e+02
					9.714465e+02	1.000019e+03	9.877059e+02	1.000046e+03	8.965896e+02	8.852091e+02	8.781570e+02	3.421733e+02	3.603785e+02