<?xml version="1.0"?>

<!--
CSMP_Simulation
-->

<VTKFile type="UnstructuredGrid" version="1.0" byte_order="LittleEndian">
	<UnstructuredGrid>
		<Piece NumberOfPoints="2922" NumberOfCells="5619">
			<Points>
				<DataArray type="Float64" Name="Position" NumberOfComponents="3" format="ascii">
					1.062348e+04	-6.219427e+03	0.000000e+00	1.328123e+04	-3.388001e+03	0.000000e+00	6.533000e+03	-2.871000e+03	0.000000e+00	8.993999e+03	3.450022e+02	0.000000e+00
					6.434000e+03	-6.251000e+03	0.000000e+00	6.415000e+03	-1.312000e+03	0.000000e+00	8.891000e+03	-1.610000e+02	0.000000e+00	1.593372e+04	-6.223812e+03	0.000000e+00
					1.243124e+04	-5.182061e+03	0.000000e+00	1.180818e+04	-6.661451e+03	0.000000e+00	1.199040e+04	-6.569837e+03	0.000000e+00	1.186573e+04	-6.450233e+03	0.000000e+00
					1.224666e+04	-6.222517e+03	0.000000e+00	1.208180e+04	-6.360720e+03	0.000000e+00	1.135568e+04	-6.216921e+03	0.000000e+00	1.177466e+04	-5.800292e+03	0.000000e+00
					1.484109e+03	2.369937e+02	0.000000e+00	1.048845e+04	-4.576829e+03	0.000000e+00	5.088007e+03	2.164612e+02	0.000000e+00	1.616065e+04	6.885872e+02	0.000000e+00
					5.856588e+03	2.844799e+02	0.000000e+00	5.964146e+03	2.322470e+02	0.000000e+00	1.285384e+04	-8.473227e+03	0.000000e+00	6.554646e+03	2.976259e+02	0.000000e+00
					6.220259e+03	3.810972e+02	0.000000e+00	2.455667e+03	2.604214e+02	0.000000e+00	1.185441e+04	-8.594387e+03	0.000000e+00	8.953729e+02	2.424411e+02	0.000000e+00
					1.642061e+04	5.389531e+02	0.000000e+00	9.022812e+03	5.486281e+02	0.000000e+00	1.072547e+04	-4.265213e+03	0.000000e+00	1.596156e+04	-4.568462e+03	0.000000e+00
					1.049681e+04	-6.339904e+03	0.000000e+00	1.229884e+04	9.679014e+02	0.000000e+00	1.346081e+04	9.303555e+02	0.000000e+00	7.674576e+03	2.576962e+02	0.000000e+00
					8.121128e+03	2.577928e+02	0.000000e+00	8.390419e+03	2.530714e+02	0.000000e+00	1.759058e+04	3.107264e+02	0.000000e+00	1.283469e+04	-3.190105e+03	0.000000e+00
					1.310544e+04	-3.163050e+03	0.000000e+00	6.218396e+03	2.847346e+02	0.000000e+00	1.964998e+04	3.306567e+02	0.000000e+00	1.089832e+04	6.517557e+02	0.000000e+00
					9.482042e+03	5.002750e+02	0.000000e+00	1.461891e+04	-3.601876e+03	0.000000e+00	1.694475e+04	2.822433e+02	0.000000e+00	1.223129e+04	-8.439639e+03	0.000000e+00
					7.092101e+03	3.133630e+02	0.000000e+00	7.447673e+03	2.954910e+02	0.000000e+00	5.479449e+03	3.927924e+02	0.000000e+00	1.430834e+04	-8.440884e+03	0.000000e+00
					1.346187e+04	-3.101654e+03	0.000000e+00	1.466219e+04	5.912805e+02	0.000000e+00	1.431424e+04	6.995984e+02	0.000000e+00	1.198158e+04	-3.600157e+03	0.000000e+00
					1.519729e+04	6.008027e+02	0.000000e+00	1.732254e+04	2.914492e+02	0.000000e+00	1.847268e+04	5.552377e+02	0.000000e+00	1.373014e+04	-3.092539e+03	0.000000e+00
					1.598609e+04	-4.803680e+03	0.000000e+00	1.811668e+03	2.957238e+02	0.000000e+00	2.068111e+03	3.301681e+02	0.000000e+00	3.593477e+02	6.241832e-01	0.000000e+00
					1.315684e+04	9.290093e+02	0.000000e+00	9.757773e+03	6.136685e+02	0.000000e+00	1.013994e+04	6.394650e+02	0.000000e+00	9.949611e+03	7.276424e+02	0.000000e+00
					1.479179e+04	-3.977888e+03	0.000000e+00	1.474764e+04	-3.691732e+03	0.000000e+00	1.224233e+04	-3.775151e+03	0.000000e+00	1.235721e+04	-3.992361e+03	0.000000e+00
					1.239488e+04	-3.732875e+03	0.000000e+00	1.247959e+04	-3.889221e+03	0.000000e+00	1.489970e+04	-6.402044e+03	0.000000e+00	1.471371e+04	-6.063480e+03	0.000000e+00
					1.503558e+04	-6.243497e+03	0.000000e+00	1.463383e+04	-6.231790e+03	0.000000e+00	1.359516e+04	-6.370837e+03	0.000000e+00	1.336635e+04	-6.229341e+03	0.000000e+00
					1.486979e+04	-7.470250e+03	0.000000e+00	1.455711e+04	-7.489929e+03	0.000000e+00	1.120299e+04	-4.942350e+03	0.000000e+00	1.218357e+04	-7.531530e+03	0.000000e+00
					1.251446e+04	-7.480192e+03	0.000000e+00	1.240108e+04	-7.647510e+03	0.000000e+00	1.239322e+04	-7.293615e+03	0.000000e+00	1.368325e+04	-7.242141e+03	0.000000e+00
					1.217897e+04	-5.028812e+03	0.000000e+00	1.378964e+04	8.854108e+02	0.000000e+00	1.351945e+04	-3.856343e+03	0.000000e+00	1.333151e+04	-3.674419e+03	0.000000e+00
					1.350782e+04	-3.520236e+03	0.000000e+00	1.479244e+04	-4.909493e+03	0.000000e+00	1.380050e+04	-4.989557e+03	0.000000e+00	3.084262e+03	3.746820e+02	0.000000e+00
					3.006144e+03	2.572346e+02	0.000000e+00	1.252005e+03	2.691829e+02	0.000000e+00	1.642126e+03	2.829086e+02	0.000000e+00	8.235090e+03	4.169793e+02	0.000000e+00
					1.537108e+04	-5.728762e+03	0.000000e+00	1.550100e+04	-5.598568e+03	0.000000e+00	1.543359e+04	-5.440257e+03	0.000000e+00	1.516251e+04	-4.367050e+03	0.000000e+00
					1.542543e+04	-4.626431e+03	0.000000e+00	1.547978e+04	-4.435709e+03	0.000000e+00	1.421355e+04	-5.774419e+03	0.000000e+00	1.398427e+04	-5.607986e+03	0.000000e+00
					1.433859e+04	-5.644592e+03	0.000000e+00	1.422646e+04	-5.431404e+03	0.000000e+00	1.278519e+04	-5.034132e+03	0.000000e+00	1.297347e+04	-4.888217e+03	0.000000e+00
					1.308886e+04	-5.058455e+03	0.000000e+00	1.295570e+04	-5.179625e+03	0.000000e+00	1.371210e+04	-5.548806e+03	0.000000e+00	1.306586e+04	-5.417419e+03	0.000000e+00
					1.398961e+04	-5.001093e+03	0.000000e+00	1.423737e+04	-5.238687e+03	0.000000e+00	1.553662e+04	-5.035070e+03	0.000000e+00	1.541510e+04	-5.176839e+03	0.000000e+00
					1.433199e+04	-4.490070e+03	0.000000e+00	1.772795e+04	4.701005e+02	0.000000e+00	1.301714e+04	-3.340203e+03	0.000000e+00	1.291928e+04	-6.673458e+03	0.000000e+00
					1.305404e+04	-6.847013e+03	0.000000e+00	1.275393e+04	-6.763001e+03	0.000000e+00	1.299225e+04	-6.992535e+03	0.000000e+00	1.111766e+04	-6.671729e+03	0.000000e+00
					1.100675e+04	-6.816450e+03	0.000000e+00	1.117046e+04	-6.969377e+03	0.000000e+00	1.205000e+04	-8.078535e+03	0.000000e+00	1.184148e+04	-7.859306e+03	0.000000e+00
					1.196430e+04	-8.231484e+03	0.000000e+00	1.298170e+04	-7.885249e+03	0.000000e+00	1.295062e+04	-8.221395e+03	0.000000e+00	1.309178e+04	-8.017537e+03	0.000000e+00
					1.120470e+04	-5.453850e+03	0.000000e+00	1.115255e+04	-5.738876e+03	0.000000e+00	1.126426e+04	-5.604117e+03	0.000000e+00	1.184009e+04	-5.022972e+03	0.000000e+00
					1.172669e+04	-4.862486e+03	0.000000e+00	1.153323e+04	-4.959783e+03	0.000000e+00	1.175756e+04	-5.171477e+03	0.000000e+00	1.534244e+04	-6.934844e+03	0.000000e+00
					1.455437e+04	-8.098472e+03	0.000000e+00	1.476956e+04	-7.877258e+03	0.000000e+00	1.464624e+04	-8.340289e+03	0.000000e+00	1.404268e+04	-7.444684e+03	0.000000e+00
					1.421918e+04	-7.630822e+03	0.000000e+00	1.428388e+04	-7.472196e+03	0.000000e+00	1.526650e+04	-7.239097e+03	0.000000e+00	1.513630e+04	-7.368500e+03	0.000000e+00
					1.581589e+04	-5.652546e+03	0.000000e+00	1.296440e+04	-6.343040e+03	0.000000e+00	1.295470e+04	-6.059130e+03	0.000000e+00	1.303797e+04	-6.200013e+03	0.000000e+00
					1.273442e+04	-6.210589e+03	0.000000e+00	1.360396e+04	-6.962240e+03	0.000000e+00	1.362392e+04	-6.655270e+03	0.000000e+00	1.339020e+04	-6.812359e+03	0.000000e+00
					6.442692e+03	4.405175e+02	0.000000e+00	3.840145e+03	2.404374e+02	0.000000e+00	3.475756e+03	2.459832e+02	0.000000e+00	3.582548e+03	3.131050e+02	0.000000e+00
					1.179383e+04	-4.550717e+03	0.000000e+00	1.173986e+04	-5.484162e+03	0.000000e+00	1.062189e+04	-5.748233e+03	0.000000e+00	1.180024e+04	-3.998124e+03	0.000000e+00
					1.173389e+04	-3.844468e+03	0.000000e+00	1.197836e+04	-3.861204e+03	0.000000e+00	1.188099e+04	-3.736811e+03	0.000000e+00	1.137465e+04	-4.416604e+03	0.000000e+00
					1.124799e+04	-4.291994e+03	0.000000e+00	1.108948e+04	-4.439061e+03	0.000000e+00	1.120866e+04	-4.578218e+03	0.000000e+00	1.076080e+04	-6.185724e+03	0.000000e+00
					1.052158e+04	-6.171076e+03	0.000000e+00	1.061654e+04	-6.082875e+03	0.000000e+00	1.068627e+04	-6.344822e+03	0.000000e+00	1.547934e+04	-6.007495e+03	0.000000e+00
					1.239362e+04	-8.015408e+03	0.000000e+00	1.231714e+04	-8.236339e+03	0.000000e+00	1.259828e+04	-8.069267e+03	0.000000e+00	1.701531e+04	4.509240e+02	0.000000e+00
					1.277290e+04	-3.855596e+03	0.000000e+00	1.248342e+04	-4.291681e+03	0.000000e+00	1.951687e+04	4.566190e+02	0.000000e+00	1.409639e+04	-3.762137e+03	0.000000e+00
					1.395297e+04	-3.853813e+03	0.000000e+00	1.426096e+04	-3.882789e+03	0.000000e+00	1.412655e+04	-4.015160e+03	0.000000e+00	1.454529e+04	-4.454906e+03	0.000000e+00
					1.477335e+04	-4.577894e+03	0.000000e+00	1.473337e+04	-4.284850e+03	0.000000e+00	1.486818e+04	-4.392328e+03	0.000000e+00	1.182077e+04	-6.079763e+03	0.000000e+00
					1.161805e+04	-6.234353e+03	0.000000e+00	1.190807e+04	-6.249025e+03	0.000000e+00	1.174207e+04	-6.340720e+03	0.000000e+00	1.216930e+04	-5.632604e+03	0.000000e+00
					1.242431e+04	-5.486649e+03	0.000000e+00	1.241345e+04	-5.774949e+03	0.000000e+00	1.249642e+04	-5.631837e+03	0.000000e+00	1.225177e+04	-5.774741e+03	0.000000e+00
					1.257980e+04	-5.777980e+03	0.000000e+00	1.225809e+04	-5.482228e+03	0.000000e+00	1.256570e+04	-5.502870e+03	0.000000e+00	1.238428e+04	-6.062964e+03	0.000000e+00
					1.282796e+04	-5.599574e+03	0.000000e+00	1.196367e+04	-6.067125e+03	0.000000e+00	1.167268e+04	-6.097839e+03	0.000000e+00	1.277630e+04	-6.604007e+03	0.000000e+00
					1.252397e+04	-6.308287e+03	0.000000e+00	1.280518e+04	-6.343281e+03	0.000000e+00	1.265315e+04	-6.346342e+03	0.000000e+00	1.271475e+04	-6.477527e+03	0.000000e+00
					1.263261e+04	-6.625855e+03	0.000000e+00	1.667927e+04	4.741056e+02	0.000000e+00	1.612116e+04	5.619883e+02	0.000000e+00	1.487289e+04	5.672211e+02	0.000000e+00
					1.548362e+04	5.952377e+02	0.000000e+00	1.585212e+04	5.965489e+02	0.000000e+00	1.757404e+04	5.394732e+02	0.000000e+00	1.743589e+04	4.800519e+02	0.000000e+00
					1.795083e+04	4.435474e+02	0.000000e+00	1.049310e+04	6.378382e+02	0.000000e+00	9.219915e+03	4.816059e+02	0.000000e+00	1.511397e+04	-4.544577e+03	0.000000e+00
					1.494532e+04	-4.564542e+03	0.000000e+00	1.454020e+04	-4.749504e+03	0.000000e+00	1.486489e+04	-4.724778e+03	0.000000e+00	1.460243e+04	-4.599803e+03	0.000000e+00
					1.446230e+04	-4.653005e+03	0.000000e+00	1.489979e+04	-3.662624e+03	0.000000e+00	1.534625e+04	-4.286436e+03	0.000000e+00	1.518403e+04	-4.162332e+03	0.000000e+00
[...]
			<PointData Scalars="bulk fluid density">
				<DataArray type="Float64" Name="bulk fluid density" NumberOfComponents="1" format="ascii">
					1.650883e+02	4.917304e+02	9.010098e+02	9.605369e+02	5.644034e+02	9.738098e+02	7.795938e+02	1.636571e+02
					3.280408e+02	4.097928e+02	4.059466e+02	4.007167e+02	3.907317e+02	3.968776e+02	3.901699e+02	3.655669e+02	9.999976e+02
					2.061812e+02	9.737505e+02	9.993915e+02	9.115518e+02	8.848441e+02	3.071739e+02	9.328316e+02	9.707439e+02	9.998758e+02
					2.778526e+02	9.996238e+02	9.994931e+02	9.924321e+02	3.468108e+02	2.048089e+02	1.543631e+02	9.998736e+02	9.998110e+02
					9.688183e+02	9.604091e+02	9.817748e+02	1.000505e+03	3.794727e+02	2.768815e+02	9.382069e+02	1.000092e+03	9.990608e+02
					9.985706e+02	5.428171e+02	9.991028e+02	4.226590e+02	9.870190e+02	9.871556e+02	9.945066e+02	4.206769e+02	2.298523e+02
					9.996728e+02	9.998827e+02	4.199448e+02	9.989495e+02	1.000231e+03	9.999258e+02	2.860827e+02	1.534460e+02	9.999433e+02
					9.998648e+02	9.970636e+02	1.000064e+03	9.994032e+02	9.998347e+02	9.995786e+02	2.462539e+02	4.267325e+02	2.271502e+02
					2.570612e+02	2.278768e+02	2.504989e+02	3.992229e+02	3.833619e+02	3.922091e+02	3.916531e+02	3.976913e+02	3.913335e+02
					4.426577e+02	4.434217e+02	3.129888e+02	4.446712e+02	4.427726e+02	4.491337e+02	4.355886e+02	4.337840e+02	3.187274e+02
					9.996928e+02	2.495658e+02	2.385319e+02	2.275593e+02	3.124983e+02	3.170248e+02	9.993435e+02	9.997540e+02	9.997612e+02
					9.998842e+02	9.852437e+02	3.621976e+02	3.540992e+02	3.444447e+02	2.673241e+02	2.839601e+02	1.237287e+02	3.648413e+02
					3.544491e+02	3.568222e+02	3.437112e+02	3.193149e+02	3.106863e+02	3.208918e+02	3.281132e+02	3.507538e+02	3.424961e+02
					3.177658e+02	3.320605e+02	3.195223e+02	3.285331e+02	2.874738e+02	9.998320e+02	4.523630e+02	4.105975e+02	4.178648e+02
					4.143309e+02	4.236895e+02	4.099493e+02	4.126368e+02	4.204107e+02	4.550111e+02	4.434184e+02	3.280461e+02	4.579524e+02
					4.672483e+02	4.627508e+02	3.438481e+02	3.614166e+02	3.530841e+02	3.182113e+02	3.085606e+02	3.142770e+02	3.270809e+02
					4.212432e+02	4.590377e+02	4.363502e+02	3.081800e+02	4.416491e+02	4.487612e+02	4.427245e+02	4.309095e+02	4.374700e+02
					3.232705e+02	3.963420e+02	3.826099e+02	3.899212e+02	3.903506e+02	4.225826e+02	4.099699e+02	4.165066e+02	9.857766e+02
					9.999972e+02	9.995835e+02	9.995082e+02	2.900510e+02	3.460086e+02	1.470137e+02	2.431752e+02	4.176588e+02	7.844287e+02
					4.608733e+02	2.732053e+02	1.230999e+02	1.254776e+02	2.832341e+02	3.701217e+02	1.481992e+02	1.613313e+02	1.763557e+02
					3.798305e+02	4.616786e+02	4.392549e+02	4.641145e+02	9.993580e+02	2.490493e+02	2.749887e+02	9.996695e+02	2.318043e+02
					2.489286e+02	2.482330e+02	2.591342e+02	2.854441e+02	2.927968e+02	2.753656e+02	2.817186e+02	3.834438e+02	3.910763e+02
					3.918217e+02	3.958827e+02	3.553245e+02	3.464906e+02	3.642843e+02	3.554232e+02	3.642028e+02	3.645382e+02	3.461441e+02
					3.475408e+02	3.826249e+02	3.535455e+02	3.826818e+02	3.844854e+02	4.076214e+02	3.946785e+02	3.963132e+02	3.964089e+02
					4.021525e+02	4.085081e+02	9.993105e+02	9.998444e+02	9.991267e+02	9.994606e+02	9.997933e+02	9.995297e+02	9.996474e+02
					1.000030e+03	9.978308e+02	9.969785e+02	2.903899e+02	2.920180e+02	3.029326e+02	3.015302e+02	2.940585e+02	2.971754e+02
					5.617882e+02	1.218912e+02	1.185910e+02	4.504584e+02	1.189759e+02	2.139685e+02	1.284662e+02	2.696900e+02	2.434690e+02
					2.707000e+02	7.843295e+02	5.452602e+02	2.767467e+02	2.666487e+02	2.696228e+02	2.582026e+02	7.841547e+02	2.610012e+02
					2.430078e+02	2.556311e+02	4.023612e+02	2.279990e+02	2.787026e+02	2.624269e+02	2.590178e+02	2.781698e+02	2.710241e+02
					2.819401e+02	9.994537e+02	9.997488e+02	9.997990e+02	2.936796e+02	3.027438e+02	3.106170e+02	4.011018e+02	2.581461e+02
					2.670487e+02	2.576150e+02	2.394654e+02	3.771579e+02	4.634142e+02	4.554722e+02	2.354472e+02	2.152622e+02	3.174425e+02
					3.079869e+02	4.632910e+02	4.553288e+02	4.637564e+02	4.600361e+02	4.588417e+02	3.983812e+02	3.001039e+02	4.149831e+02
					4.118038e+02	3.591869e+02	3.725282e+02	3.821134e+02	3.710194e+02	3.979853e+02	4.054853e+02	3.967842e+02	3.809180e+02
					3.744180e+02	3.730563e+02	3.636661e+02	3.839345e+02	3.986130e+02	4.072862e+02	3.990344e+02	1.684749e+02	1.493624e+02
					1.456499e+02	1.225471e+02	3.076679e+02	1.291804e+02	3.027374e+02	3.067183e+02	1.365576e+02	1.516755e+02	1.402548e+02
					1.179429e+02	1.361592e+02	2.722420e+02	2.794541e+02	3.063375e+02	1.247271e+02	2.624846e+02	2.772489e+02	2.559765e+02
					4.844335e+02	4.173967e+02	5.224334e+02	2.407022e+02	2.732669e+02	1.301024e+02	2.530398e+02	2.702385e+02	1.484607e+02
					1.212549e+02	1.200785e+02	3.811064e+02	1.462245e+02	1.522257e+02	3.549164e+02	3.244829e+02	1.436238e+02	2.728959e+02
					2.833570e+02	2.821326e+02	2.732404e+02	2.738233e+02	2.551760e+02	2.650772e+02	2.632495e+02	9.994727e+02	9.996257e+02
					9.998177e+02	9.997044e+02	9.962720e+02	8.959299e+02	9.693248e+02	9.404607e+02	9.221384e+02	9.381547e+02	4.612254e+02
					4.211411e+02	3.826290e+02	3.798275e+02	3.587394e+02	3.687348e+02	3.863084e+02	3.717630e+02	3.635952e+02	3.979912e+02
					3.974953e+02	4.034154e+02	4.051038e+02	4.086480e+02	3.824779e+02	3.829762e+02	3.623334e+02	3.627948e+02	3.727366e+02
					3.623693e+02	3.951834e+02	3.981329e+02	4.104253e+02	4.109836e+02	3.983893e+02	4.030740e+02	4.046430e+02	4.109519e+02
					1.415156e+02	1.800145e+02	1.587368e+02	1.692231e+02	3.944658e+02	3.489139e+02	3.844998e+02	1.588266e+02	1.313662e+02
					1.361381e+02	1.359503e+02	1.560044e+02	1.383344e+02	3.400577e+02	1.466908e+02	1.561024e+02	3.589761e+02	3.749896e+02
					3.692281e+02	1.586349e+02	4.395298e+02	4.474843e+02	4.350850e+02	4.487232e+02	4.481244e+02	4.365033e+02	4.385077e+02
					4.489425e+02	4.553820e+02	4.605890e+02	4.469577e+02	4.529529e+02	4.409117e+02	4.583446e+02	4.556182e+02	3.913985e+02
					4.328543e+02	4.365312e+02	4.239059e+02	4.376683e+02	4.396490e+02	4.287678e+02	4.285007e+02	4.224215e+02	4.163056e+02
					4.231741e+02	4.182381e+02	4.109488e+02	4.100168e+02	2.891814e+02	3.863123e+02	1.822504e+02	4.117490e+02	4.071008e+02
					4.014114e+02	4.035455e+02	4.089016e+02	3.950234e+02	3.810488e+02	4.116477e+02	4.197624e+02	2.666065e+02	4.289399e+02
					4.366504e+02	4.239863e+02	4.273330e+02	4.218407e+02	4.169329e+02	4.196845e+02	4.138449e+02	3.985712e+02	4.108042e+02
					4.068208e+02	4.159973e+02	4.216659e+02	4.274578e+02	4.137934e+02	4.364127e+02	4.332492e+02	4.248233e+02	3.255091e+02
					3.265050e+02	3.376748e+02	3.435015e+02	3.338893e+02	3.834789e+02	3.858496e+02	3.735295e+02	3.738506e+02	3.640630e+02
					3.785432e+02	3.538188e+02	3.447292e+02	3.255646e+02	2.888932e+02	2.873705e+02	3.054785e+02	2.946382e+02	2.980021e+02
					2.884144e+02	3.063331e+02	3.027946e+02	3.453961e+02	3.332979e+02	3.241022e+02	3.348002e+02	3.441896e+02	3.258104e+02
					3.219394e+02	3.649656e+02	3.572731e+02	3.623072e+02	3.703214e+02	3.770782e+02	3.716840e+02	3.429211e+02	3.334564e+02
					3.608283e+02	3.440128e+02	3.286146e+02	3.354840e+02	3.459099e+02	3.273959e+02	3.276442e+02	3.368882e+02	3.459847e+02
					3.364735e+02	3.279018e+02	3.624569e+02	3.721727e+02	3.662779e+02	3.877535e+02	3.733546e+02	3.810023e+02	3.694496e+02
					3.857849e+02	3.781460e+02	3.819884e+02	2.925844e+02	3.090793e+02	3.005592e+02	2.901758e+02	3.094913e+02	2.996123e+02
					3.099986e+02	2.919687e+02	1.600057e+02	4.084825e+02	3.814399e+02	1.436675e+02	4.030486e+02	3.819819e+02	3.957071e+02
					2.730015e+02	4.126316e+02	4.238099e+02	4.298002e+02	4.359812e+02	4.241078e+02	4.356318e+02	4.470965e+02	4.354284e+02
					4.477043e+02	4.226321e+02	4.168070e+02	4.237717e+02	4.172382e+02	4.115194e+02	4.104995e+02	4.234310e+02	4.473887e+02
					4.595997e+02	4.542449e+02	4.480435e+02	4.556011e+02	4.575644e+02	4.525403e+02	4.294277e+02	4.228991e+02	4.271189e+02
					4.307932e+02	4.365523e+02	4.648079e+02	4.606042e+02	4.624232e+02	4.621921e+02	4.641933e+02	3.057858e+02	4.497500e+02
					4.635331e+02	3.268072e+02	4.637632e+02	4.674304e+02	4.643347e+02	4.669629e+02	4.664129e+02	4.531595e+02	4.477987e+02
					4.614155e+02	4.592130e+02	4.463446e+02	4.578487e+02	4.492077e+02	4.463350e+02	4.520468e+02	4.254856e+02	4.354817e+02
					4.320809e+02	4.284114e+02	4.242673e+02	4.339232e+02	4.364512e+02	4.118966e+02	3.979012e+02	4.037758e+02	4.148659e+02
					3.980923e+02	4.367848e+02	3.470550e+02	4.454421e+02	4.470187e+02	4.448331e+02	3.506099e+02	3.519451e+02	3.158157e+02
					4.176758e+02	4.188529e+02	4.114422e+02	4.237892e+02	4.271174e+02	1.783085e+02	4.130346e+02	3.967975e+02	4.361781e+02
					4.195179e+02	4.157793e+02	3.990333e+02	4.567314e+02	4.440563e+02	4.554039e+02	4.504153e+02	4.562052e+02	4.434010e+02
					4.308562e+02	4.359586e+02	4.245268e+02	4.276275e+02	4.347665e+02	4.227595e+02	4.311618e+02	4.340177e+02	1.408166e+02
					5.134254e+02	2.124005e+02	2.377421e+02	4.832717e+02	9.996947e+02	4.664827e+02	9.994587e+02	9.997314e+02	9.995620e+02
					9.995585e+02	9.994639e+02	1.003568e+03	1.001893e+03	1.002307e+03	1.002634e+03	1.003526e+03	1.000921e+03	1.003371e+03
					1.003672e+03	2.092032e+02	2.078679e+02	2.622214e+02	2.645633e+02	9.996223e+02	1.003041e+03	1.000981e+03	1.000904e+03
					9.998824e+02	2.550900e+02	2.714003e+02	2.655806e+02	2.352121e+02	2.091396e+02	2.310364e+02	3.998884e+02	5.440039e+02
					5.148742e+02	4.636688e+02	2.912804e+02	2.733561e+02	2.804883e+02	2.834459e+02	2.750850e+02	2.955804e+02	1.437526e+02
					1.595492e+02	1.315674e+02	3.434695e+02	3.372598e+02	3.106917e+02	3.251300e+02	1.329976e+02	3.442805e+02	3.290556e+02
					3.080640e+02	3.000160e+02	3.115977e+02	2.940977e+02	2.703666e+02	2.868542e+02	2.765219e+02	2.815876e+02	2.737631e+02
					2.939308e+02	2.751604e+02	2.876290e+02	2.762322e+02	2.565073e+02	2.640516e+02	2.726652e+02	2.664309e+02	2.853442e+02
					3.067673e+02	2.887824e+02	2.931318e+02	3.111468e+02	2.962181e+02	3.396628e+02	3.247946e+02	3.831871e+02	3.630817e+02
					3.436718e+02	3.273903e+02	2.876569e+02	3.050726e+02	2.905258e+02	2.955790e+02	3.080350e+02	3.447430e+02	3.531486e+02
					3.511806e+02	3.444833e+02	3.631394e+02	3.841105e+02	3.361449e+02	3.441620e+02	3.253709e+02	3.355715e+02	3.238005e+02
					3.284140e+02	3.439234e+02	3.264765e+02	3.450043e+02	3.362470e+02	3.284260e+02	3.325289e+02	3.052577e+02	3.140217e+02
					2.983669e+02	3.049594e+02	2.910566e+02	3.089907e+02	3.137693e+02	3.192244e+02	3.117310e+02	3.373881e+02	3.470665e+02
					3.454997e+02	3.447054e+02	3.506081e+02	3.670558e+02	3.637961e+02	3.835891e+02	1.289158e+02	1.518962e+02	3.001068e+02
					2.768387e+02	2.939883e+02	3.105145e+02	3.507756e+02	3.651969e+02	3.517982e+02	3.487349e+02	3.603781e+02	3.294245e+02
					3.096032e+02	3.440550e+02	3.211166e+02	3.489525e+02	3.324840e+02	3.372767e+02	3.373204e+02	9.989457e+02	9.952269e+02
					1.000105e+03	9.893671e+02	9.865085e+02	9.888292e+02	9.995435e+02	9.993595e+02	9.996074e+02	9.957145e+02	9.821602e+02
					9.796277e+02	9.994874e+02	9.995272e+02	9.986755e+02	9.996556e+02	9.995225e+02	2.893283e+02	2.959363e+02	3.086100e+02
					3.116974e+02	3.290270e+02	3.111796e+02	3.287493e+02	3.181939e+02	3.202394e+02	3.370009e+02	3.443031e+02	3.295412e+02
					3.367375e+02	3.314308e+02	3.075150e+02	3.283157e+02	3.100620e+02	3.206573e+02	2.325924e+02	2.304358e+02	2.071555e+02
					4.219568e+02	2.532894e+02	2.454902e+02	2.323057e+02	2.467658e+02	2.527000e+02	2.560350e+02	2.621135e+02	2.689308e+02
					9.994582e+02	4.526494e+02	4.573635e+02	4.450664e+02	4.428711e+02	4.400446e+02	4.478206e+02	4.413384e+02	4.381184e+02
					4.665153e+02	4.388413e+02	4.357246e+02	4.490412e+02	4.504491e+02	4.422616e+02	4.413632e+02	2.916445e+02	4.480647e+02
					4.333945e+02	4.256943e+02	4.379620e+02	4.304522e+02	4.478563e+02	3.908140e+02	3.715511e+02	3.829993e+02	3.644584e+02
					3.916751e+02	3.981160e+02	3.904454e+02	1.725610e+02	3.837815e+02	3.991690e+02	3.914321e+02	4.001448e+02	3.830748e+02
					3.892453e+02	3.614146e+02	4.124098e+02	4.483240e+02	2.356281e+02	2.598521e+02	2.517659e+02	9.998003e+02	4.046201e+02
					4.015572e+02	4.094517e+02	3.966280e+02	3.991876e+02	4.036096e+02	6.164367e+02	6.442460e+02	6.281165e+02	9.958716e+02
					9.925522e+02	9.948261e+02	9.987281e+02	9.731002e+02	9.646807e+02	9.741192e+02	9.842974e+02	9.415683e+02	9.420014e+02
					9.516818e+02	9.485758e+02	8.174342e+02	7.869607e+02	8.388051e+02	8.158089e+02	9.896795e+02	9.729283e+02	9.633029e+02
					9.992234e+02	9.858475e+02	8.238749e+02	8.258635e+02	7.531758e+02	1.000131e+03	9.997103e+02	1.000933e+03	8.688414e+02
					8.800075e+02	8.322109e+02	2.659027e+02	4.810210e+02	2.500255e+02	9.130168e+02	9.608974e+02	8.978690e+02	5.831118e+02
					5.380749e+02	5.431499e+02	4.916126e+02	2.657752e+02	2.696601e+02	2.690460e+02	2.911903e+02	2.732868e+02	2.708256e+02
					4.060284e+02	3.721524e+02	3.928818e+02	3.916168e+02	2.677135e+02	2.626950e+02	2.957617e+02	2.921704e+02	1.749436e+02
					8.379867e+02	8.374869e+02	8.130499e+02	8.633120e+02	7.858569e+02	7.976844e+02	7.678845e+02	8.190826e+02	6.909754e+02
					5.356141e+02	3.007663e+02	1.748880e+02	2.907383e+02	2.947207e+02	8.398612e+02	8.067312e+02	8.059123e+02	8.747912e+02
					9.034207e+02	8.694001e+02	5.617208e+02	2.296955e+02	4.462203e+02	3.615437e+02	7.069359e+02	6.249547e+02	8.506551e+02
					8.797474e+02	7.030837e+02	7.312200e+02	6.650122e+02	8.328072e+02	2.871622e+02	4.998642e+02	3.632727e+02	6.907214e+02
					7.112178e+02	2.941164e+02	2.790414e+02	3.024915e+02	2.728110e+02	3.573851e+02	4.038554e+02	3.989723e+02	2.878799e+02
					2.933642e+02	2.621061e+02	2.786136e+02	2.781793e+02	3.030799e+02	2.724806e+02	3.928413e+02	3.892954e+02	4.320814e+02
					4.426627e+02	4.390599e+02	4.551390e+02	4.281749e+02	2.727507e+02	4.494702e+02	2.728065e+02	4.412490e+02	4.413145e+02
					4.514767e+02	3.175664e+02	2.746555e+02	2.788924e+02	2.654715e+02	2.742507e+02	2.937826e+02	3.301547e+02	4.021221e+02
					3.590802e+02	3.357119e+02	3.695539e+02	3.578507e+02	4.111833e+02	3.963407e+02	4.004154e+02	3.724407e+02	3.750013e+02
					3.387442e+02	9.755897e+02	1.001018e+03	9.961029e+02	1.002481e+03	8.607362e+02	7.919278e+02	7.108868e+02	8.308058e+02
					9.996126e+02	1.000762e+03	9.995678e+02	9.539486e+02	9.973227e+02	9.053438e+02	9.364275e+02	9.659291e+02	8.953770e+02
					9.109974e+02	8.620396e+02	9.338835e+02	9.137624e+02	9.304546e+02	9.993160e+02	9.953513e+02	1.000195e+03	1.001734e+03
					2.591604e+02	2.423517e+02	1.980749e+02	3.598660e+02	6.346121e+02	6.911055e+02	8.271548e+02	8.021014e+02	6.435787e+02
					3.185792e+02	3.367490e+02	3.201297e+02	3.001938e+02	9.565592e+02	8.988655e+02	7.513434e+02	8.425011e+02	1.000185e+03
					8.003376e+02	9.294001e+02	7.729627e+02	7.630926e+02	9.036106e+02	8.857365e+02	8.979262e+02	8.897906e+02	9.031563e+02
					9.247164e+02	9.120531e+02	9.645170e+02	9.770331e+02	9.660920e+02	9.585573e+02	9.924666e+02	9.720994e+02	9.541921e+02
					9.566377e+02	9.316752e+02	9.856243e+02	9.825819e+02	9.099184e+02	9.302376e+02	9.054230e+02	8.077351e+02	7.806566e+02
					8.112126e+02	8.344978e+02	7.234436e+02	7.020396e+02	6.554770e+02	6.858562e+02	7.822966e+02	8.105010e+02	8.253870e+02
					8.076445e+02	9.283760e+02	8.892576e+02	9.012802e+02	8.791046e+02	1.001909e+03	1.000679e+03	7.062453e+02	7.253216e+02
					9.317402e+02	9.175500e+02	9.192341e+02	9.999070e+02	1.001079e+03	9.941069e+02	9.854092e+02	9.218306e+02	9.019290e+02
					9.298348e+02	9.166119e+02	8.210940e+02	8.543085e+02	8.151497e+02	9.383392e+02	9.168009e+02	9.362442e+02	1.000420e+03
					9.999466e+02	9.983719e+02	1.001819e+03	9.906648e+02	9.758975e+02	9.850280e+02	9.998290e+02	9.997871e+02	9.864433e+02
					9.941365e+02	9.429460e+02	9.207977e+02	9.680839e+02	9.476456e+02	9.827298e+02	9.953266e+02	1.001759e+03	9.164904e+02
					7.031391e+02	6.775086e+02	8.086437e+02	4.933719e+02	2.277943e+02	5.833224e+02	6.173905e+02	5.545556e+02	3.901069e+02
					6.822632e+02	6.008630e+02	6.321589e+02	6.784187e+02	5.342069e+02	4.353035e+02	4.952668e+02	3.325584e+02	3.963068e+02
					3.235927e+02	4.443803e+02	3.137050e+02	3.888535e+02	4.045744e+02	3.073466e+02	3.571230e+02	4.644241e+02	2.303202e+02
					5.726065e+02	6.138434e+02	2.344889e+02	3.061212e+02	2.447162e+02	2.983279e+02	3.632312e+02	4.713229e+02	3.141225e+02
					8.116105e+02	8.530612e+02	5.212760e+02	7.592721e+02	6.075486e+02	6.935873e+02	6.895151e+02	6.230545e+02	6.636029e+02
					5.542598e+02	8.136184e+02	6.548670e+02	7.754573e+02	8.543749e+02	8.127940e+02	7.452114e+02	9.064087e+02	9.398322e+02
					8.054831e+02	8.980719e+02	6.438685e+02	8.236964e+02	6.368853e+02	6.915316e+02	8.118579e+02	9.828759e+02	9.912479e+02
					9.737527e+02	9.653417e+02	9.930916e+02	9.824088e+02	9.891364e+02	9.675381e+02	9.754352e+02	9.775137e+02	9.662639e+02
					9.945324e+02	9.985695e+02	9.982517e+02	9.968588e+02	9.957708e+02	9.870265e+02	9.995085e+02	9.995301e+02	1.001499e+03
					9.989917e+02	9.985068e+02	1.000383e+03	9.908354e+02	9.987001e+02	9.826496e+02	9.943074e+02	9.560499e+02	9.690557e+02
					1.002481e+03	9.964939e+02	1.001961e+03	1.000440e+03	9.963015e+02	1.001285e+03	9.924456e+02	9.961735e+02	9.373172e+02
					8.660322e+02	8.500361e+02	8.473154e+02	9.295983e+02	9.401582e+02	8.768804e+02	9.324834e+02	9.369435e+02	8.977005e+02
					8.623999e+02	9.289094e+02	9.107621e+02	9.339362e+02	9.313849e+02	9.275285e+02	9.712792e+02	9.956139e+02	9.555807e+02
					9.659738e+02	1.002103e+03	1.000489e+03	1.001736e+03	9.999288e+02	1.000785e+03	1.000130e+03	9.883644e+02	8.800653e+02
					8.750019e+02	8.962722e+02	9.098919e+02	8.917325e+02	7.441037e+02	8.079743e+02	7.955367e+02	7.517131e+02	7.819860e+02
					7.574644e+02	9.053221e+02	8.794266e+02	9.043167e+02	8.647997e+02	8.924316e+02	8.525801e+02	8.823276e+02	8.667804e+02
					8.571667e+02	8.755984e+02	8.519915e+02	8.250350e+02	7.730481e+02	8.112266e+02	7.538709e+02	8.226320e+02	8.039745e+02
					8.465468e+02	8.304400e+02	8.198441e+02	8.064247e+02	9.075205e+02	6.782133e+02	7.235246e+02	7.014844e+02	6.805626e+02
					5.880210e+02	6.614389e+02	6.390423e+02	7.116266e+02	7.764471e+02	7.293795e+02	7.783003e+02	7.484237e+02	7.498008e+02
					7.978518e+02	9.048745e+02	8.573502e+02	8.972369e+02	8.376030e+02	9.796972e+02	1.002452e+03	9.995620e+02	1.002181e+03
					1.002470e+03	1.001268e+03	1.000662e+03	9.947155e+02	9.995883e+02	1.000957e+03	9.997830e+02	1.000624e+03	9.788350e+02
					8.952958e+02	8.769265e+02	7.829111e+02	8.342549e+02	7.605582e+02	7.792542e+02	7.317901e+02	6.633671e+02	6.338892e+02
					6.426390e+02	6.818988e+02	7.319627e+02	6.705875e+02	7.295477e+02	8.885510e+02	8.561778e+02	8.393272e+02	7.850715e+02
					8.046515e+02	9.322718e+02	8.792127e+02	7.858155e+02	7.562385e+02	7.271617e+02	8.877343e+02	8.397442e+02	8.658530e+02
					8.903631e+02	8.400144e+02	8.632790e+02	9.077563e+02	9.488176e+02	9.558897e+02	9.374075e+02	9.136564e+02	9.243484e+02
					9.407267e+02	9.467679e+02	9.282365e+02	8.626030e+02	8.369225e+02	8.208200e+02	8.576000e+02	8.740320e+02	8.303323e+02
					8.892925e+02	1.000035e+03	9.996042e+02	1.001288e+03	9.526158e+02	8.719413e+02	8.688009e+02	9.917270e+02	1.001290e+03
					9.738293e+02	9.234078e+02	9.858085e+02	9.832409e+02	9.618769e+02	9.911254e+02	9.988786e+02	9.955637e+02	9.569328e+02
					9.670271e+02	9.861862e+02	9.889793e+02	1.001475e+03	9.296457e+02	9.503260e+02	9.499895e+02	9.614288e+02	9.775958e+02
					8.968574e+02	9.334447e+02	9.658032e+02	9.328331e+02	8.822794e+02	9.351722e+02	9.308697e+02	8.395098e+02	9.227710e+02
					8.628704e+02	9.318204e+02	9.570214e+02	9.308952e+02	8.640062e+02	8.810777e+02	8.351017e+02	8.688941e+02	9.798150e+02
					8.383482e+02	8.946591e+02	8.647322e+02	7.935457e+02	9.080744e+02	8.206091e+02	9.280192e+02	8.070913e+02	7.787614e+02
					9.083210e+02	7.797438e+02	9.140618e+02	8.097098e+02	8.358103e+02	7.516667e+02	8.772102e+02	9.990808e+02	1.000377e+03
					1.000133e+03	1.001041e+03	9.710246e+02	9.998084e+02	9.976401e+02	9.769246e+02	9.948482e+02	8.459569e+02	8.538597e+02
					9.555916e+02	1.000508e+03	9.993152e+02	1.000906e+03	8.653893e+02	8.546971e+02	8.683905e+02	3.417908e+02	3.603938e+02