<?xml version="1.0"?>

<!--
CSMP_Simulation
-->

<VTKFile type="UnstructuredGrid" version="1.0" byte_order="LittleEndian">
	<UnstructuredGrid>
		<Piece NumberOfPoints="2922" NumberOfCells="5619">
			<Points>
				<DataArray type="Float64" Name="Position" NumberOfComponents="3" format="ascii">
					1.062348e+04	-6.219427e+03	0.000000e+00	1.328123e+04	-3.388001e+03	0.000000e+00	6.533000e+03	-2.871000e+03	0.000000e+00	8.993999e+03	3.450022e+02	0.000000e+00
					6.434000e+03	-6.251000e+03	0.000000e+00	6.415000e+03	-1.312000e+03	0.000000e+00	8.891000e+03	-1.610000e+02	0.000000e+00	1.593372e+04	-6.223812e+03	0.000000e+00
					1.243124e+04	-5.182061e+03	0.000000e+00	1.180818e+04	-6.661451e+03	0.000000e+00	1.199040e+04	-6.569837e+03	0.000000e+00	1.186573e+04	-6.450233e+03	0.000000e+00
					1.224666e+04	-6.222517e+03	0.000000e+00	1.208180e+04	-6.360720e+03	0.000000e+00	1.135568e+04	-6.216921e+03	0.000000e+00	1.177466e+04	-5.800292e+03	0.000000e+00
					1.484109e+03	2.369937e+02	0.000000e+00	1.048845e+04	-4.576829e+03	0.000000e+00	5.088007e+03	2.164612e+02	0.000000e+00	1.616065e+04	6.885872e+02	0.000000e+00
					5.856588e+03	2.844799e+02	0.000000e+00	5.964146e+03	2.322470e+02	0.000000e+00	1.285384e+04	-8.473227e+03	0.000000e+00	6.554646e+03	2.976259e+02	0.000000e+00
					6.220259e+03	3.810972e+02	0.000000e+00	2.455667e+03	2.604214e+02	0.000000e+00	1.185441e+04	-8.594387e+03	0.000000e+00	8.953729e+02	2.424411e+02	0.000000e+00
					1.642061e+04	5.389531e+02	0.000000e+00	9.022812e+03	5.486281e+02	0.000000e+00	1.072547e+04	-4.265213e+03	0.000000e+00	1.596156e+04	-4.568462e+03	0.000000e+00
					1.049681e+04	-6.339904e+03	0.000000e+00	1.229884e+04	9.679014e+02	0.000000e+00	1.346081e+04	9.303555e+02	0.000000e+00	7.674576e+03	2.576962e+02	0.000000e+00
					8.121128e+03	2.577928e+02	0.000000e+00	8.390419e+03	2.530714e+02	0.000000e+00	1.759058e+04	3.107264e+02	0.000000e+00	1.283469e+04	-3.190105e+03	0.000000e+00
					1.310544e+04	-3.163050e+03	0.000000e+00	6.218396e+03	2.847346e+02	0.000000e+00	1.964998e+04	3.306567e+02	0.000000e+00	1.089832e+04	6.517557e+02	0.000000e+00
					9.482042e+03	5.002750e+02	0.000000e+00	1.461891e+04	-3.601876e+03	0.000000e+00	1.694475e+04	2.822433e+02	0.000000e+00	1.223129e+04	-8.439639e+03	0.000000e+00
					7.092101e+03	3.133630e+02	0.000000e+00	7.447673e+03	2.954910e+02	0.000000e+00	5.479449e+03	3.927924e+02	0.000000e+00	1.430834e+04	-8.440884e+03	0.000000e+00
					1.346187e+04	-3.101654e+03	0.000000e+00	1.466219e+04	5.912805e+02	0.000000e+00	1.431424e+04	6.995984e+02	0.000000e+00	1.198158e+04	-3.600157e+03	0.000000e+00
					1.519729e+04	6.008027e+02	0.000000e+00	1.732254e+04	2.914492e+02	0.000000e+00	1.847268e+04	5.552377e+02	0.000000e+00	1.373014e+04	-3.092539e+03	0.000000e+00
					1.598609e+04	-4.803680e+03	0.000000e+00	1.811668e+03	2.957238e+02	0.000000e+00	2.068111e+03	3.301681e+02	0.000000e+00	3.593477e+02	6.241832e-01	0.000000e+00
					1.315684e+04	9.290093e+02	0.000000e+00	9.757773e+03	6.136685e+02	0.000000e+00	1.013994e+04	6.394650e+02	0.000000e+00	9.949611e+03	7.276424e+02	0.000000e+00
					1.479179e+04	-3.977888e+03	0.000000e+00	1.474764e+04	-3.691732e+03	0.000000e+00	1.224233e+04	-3.775151e+03	0.000000e+00	1.235721e+04	-3.992361e+03	0.000000e+00
					1.239488e+04	-3.732875e+03	0.000000e+00	1.247959e+04	-3.889221e+03	0.000000e+00	1.489970e+04	-6.402044e+03	0.000000e+00	1.471371e+04	-6.063480e+03	0.000000e+00
					1.503558e+04	-6.243497e+03	0.000000e+00	1.463383e+04	-6.231790e+03	0.000000e+00	1.359516e+04	-6.370837e+03	0.000000e+00	1.336635e+04	-6.229341e+03	0.000000e+00
					1.486979e+04	-7.470250e+03	0.000000e+00	1.455711e+04	-7.489929e+03	0.000000e+00	1.120299e+04	-4.942350e+03	0.000000e+00	1.218357e+04	-7.531530e+03	0.000000e+00
					1.251446e+04	-7.480192e+03	0.000000e+00	1.240108e+04	-7.647510e+03	0.000000e+00	1.239322e+04	-7.293615e+03	0.000000e+00	1.368325e+04	-7.242141e+03	0.000000e+00
					1.217897e+04	-5.028812e+03	0.000000e+00	1.378964e+04	8.854108e+02	0.000000e+00	1.351945e+04	-3.856343e+03	0.000000e+00	1.333151e+04	-3.674419e+03	0.000000e+00
					1.350782e+04	-3.520236e+03	0.000000e+00	1.479244e+04	-4.909493e+03	0.000000e+00	1.380050e+04	-4.989557e+03	0.000000e+00	3.084262e+03	3.746820e+02	0.000000e+00
					3.006144e+03	2.572346e+02	0.000000e+00	1.252005e+03	2.691829e+02	0.000000e+00	1.642126e+03	2.829086e+02	0.000000e+00	8.235090e+03	4.169793e+02	0.000000e+00
					1.537108e+04	-5.728762e+03	0.000000e+00	1.550100e+04	-5.598568e+03	0.000000e+00	1.543359e+04	-5.440257e+03	0.000000e+00	1.516251e+04	-4.367050e+03	0.000000e+00
					1.542543e+04	-4.626431e+03	0.000000e+00	1.547978e+04	-4.435709e+03	0.000000e+00	1.421355e+04	-5.774419e+03	0.000000e+00	1.398427e+04	-5.607986e+03	0.000000e+00
					1.433859e+04	-5.644592e+03	0.000000e+00	1.422646e+04	-5.431404e+03	0.000000e+00	1.278519e+04	-5.034132e+03	0.000000e+00	1.297347e+04	-4.888217e+03	0.000000e+00
					1.308886e+04	-5.058455e+03	0.000000e+00	1.295570e+04	-5.179625e+03	0.000000e+00	1.371210e+04	-5.548806e+03	0.000000e+00	1.306586e+04	-5.417419e+03	0.000000e+00
					1.398961e+04	-5.001093e+03	0.000000e+00	1.423737e+04	-5.238687e+03	0.000000e+00	1.553662e+04	-5.035070e+03	0.000000e+00	1.541510e+04	-5.176839e+03	0.000000e+00
					1.433199e+04	-4.490070e+03	0.000000e+00	1.772795e+04	4.701005e+02	0.000000e+00	1.301714e+04	-3.340203e+03	0.000000e+00	1.291928e+04	-6.673458e+03	0.000000e+00
					1.305404e+04	-6.847013e+03	0.000000e+00	1.275393e+04	-6.763001e+03	0.000000e+00	1.299225e+04	-6.992535e+03	0.000000e+00	1.111766e+04	-6.671729e+03	0.000000e+00
					1.100675e+04	-6.816450e+03	0.000000e+00	1.117046e+04	-6.969377e+03	0.000000e+00	1.205000e+04	-8.078535e+03	0.000000e+00	1.184148e+04	-7.859306e+03	0.000000e+00
					1.196430e+04	-8.231484e+03	0.000000e+00	1.298170e+04	-7.885249e+03	0.000000e+00	1.295062e+04	-8.221395e+03	0.000000e+00	1.309178e+04	-8.017537e+03	0.000000e+00
					1.120470e+04	-5.453850e+03	0.000000e+00	1.115255e+04	-5.738876e+03	0.000000e+00	1.126426e+04	-5.604117e+03	0.000000e+00	1.184009e+04	-5.022972e+03	0.000000e+00
					1.172669e+04	-4.862486e+03	0.000000e+00	1.153323e+04	-4.959783e+03	0.000000e+00	1.175756e+04	-5.171477e+03	0.000000e+00	1.534244e+04	-6.934844e+03	0.000000e+00
					1.455437e+04	-8.098472e+03	0.000000e+00	1.476956e+04	-7.877258e+03	0.000000e+00	1.464624e+04	-8.340289e+03	0.000000e+00	1.404268e+04	-7.444684e+03	0.000000e+00
					1.421918e+04	-7.630822e+03	0.000000e+00	1.428388e+04	-7.472196e+03	0.000000e+00	1.526650e+04	-7.239097e+03	0.000000e+00	1.513630e+04	-7.368500e+03	0.000000e+00
					1.581589e+04	-5.652546e+03	0.000000e+00	1.296440e+04	-6.343040e+03	0.000000e+00	1.295470e+04	-6.059130e+03	0.000000e+00	1.303797e+04	-6.200013e+03	0.000000e+00
					1.273442e+04	-6.210589e+03	0.000000e+00	1.360396e+04	-6.962240e+03	0.000000e+00	1.362392e+04	-6.655270e+03	0.000000e+00	1.339020e+04	-6.812359e+03	0.000000e+00
					6.442692e+03	4.405175e+02	0.000000e+00	3.840145e+03	2.404374e+02	0.000000e+00	3.475756e+03	2.459832e+02	0.000000e+00	3.582548e+03	3.131050e+02	0.000000e+00
					1.179383e+04	-4.550717e+03	0.000000e+00	1.173986e+04	-5.484162e+03	0.000000e+00	1.062189e+04	-5.748233e+03	0.000000e+00	1.180024e+04	-3.998124e+03	0.000000e+00
					1.173389e+04	-3.844468e+03	0.000000e+00	1.197836e+04	-3.861204e+03	0.000000e+00	1.188099e+04	-3.736811e+03	0.000000e+00	1.137465e+04	-4.416604e+03	0.000000e+00
					1.124799e+04	-4.291994e+03	0.000000e+00	1.108948e+04	-4.439061e+03	0.000000e+00	1.120866e+04	-4.578218e+03	0.000000e+00	1.076080e+04	-6.185724e+03	0.000000e+00
					1.052158e+04	-6.171076e+03	0.000000e+00	1.061654e+04	-6.082875e+03	0.000000e+00	1.068627e+04	-6.344822e+03	0.000000e+00	1.547934e+04	-6.007495e+03	0.000000e+00
					1.239362e+04	-8.015408e+03	0.000000e+00	1.231714e+04	-8.236339e+03	0.000000e+00	1.259828e+04	-8.069267e+03	0.000000e+00	1.701531e+04	4.509240e+02	0.000000e+00
					1.277290e+04	-3.855596e+03	0.000000e+00	1.248342e+04	-4.291681e+03	0.000000e+00	1.951687e+04	4.566190e+02	0.000000e+00	1.409639e+04	-3.762137e+03	0.000000e+00
					1.395297e+04	-3.853813e+03	0.000000e+00	1.426096e+04	-3.882789e+03	0.000000e+00	1.412655e+04	-4.015160e+03	0.000000e+00	1.454529e+04	-4.454906e+03	0.000000e+00
					1.477335e+04	-4.577894e+03	0.000000e+00	1.473337e+04	-4.284850e+03	0.000000e+00	1.486818e+04	-4.392328e+03	0.000000e+00	1.182077e+04	-6.079763e+03	0.000000e+00
					1.161805e+04	-6.234353e+03	0.000000e+00	1.190807e+04	-6.249025e+03	0.000000e+00	1.174207e+04	-6.340720e+03	0.000000e+00	1.216930e+04	-5.632604e+03	0.000000e+00
					1.242431e+04	-5.486649e+03	0.000000e+00	1.241345e+04	-5.774949e+03	0.000000e+00	1.249642e+04	-5.631837e+03	0.000000e+00	1.225177e+04	-5.774741e+03	0.000000e+00
					1.257980e+04	-5.777980e+03	0.000000e+00	1.225809e+04	-5.482228e+03	0.000000e+00	1.256570e+04	-5.502870e+03	0.000000e+00	1.238428e+04	-6.062964e+03	0.000000e+00
					1.282796e+04	-5.599574e+03	0.000000e+00	1.196367e+04	-6.067125e+03	0.000000e+00	1.167268e+04	-6.097839e+03	0.000000e+00	1.277630e+04	-6.604007e+03	0.000000e+00
					1.500551e+04	-7.272801e+03	0.000000e+00	1.436310e+04	-7.629506e+03	0.000000e+00	1.405447e+04	-7.614436e+03	0.000000e+00	1.378616e+04	-7.311337e+03	0.000000e+00
					1.449798e+04	-7.361653e+03	0.000000e+00	1.450249e+04	-7.635568e+03	0.000000e+00	1.431253e+04	-7.811639e+03	0.000000e+00	1.414808e+04	-7.968868e+03	0.000000e+00
					1.487244e+04	-7.758708e+03	0.000000e+00	1.460617e+04	-7.765267e+03	0.000000e+00	1.424603e+04	-8.234521e+03	0.000000e+00	1.448709e+04	-7.900806e+03	0.000000e+00
					1.464000e+04	-7.940785e+03	0.000000e+00	1.490539e+04	-7.933881e+03	0.000000e+00	1.510985e+04	-7.219671e+03	0.000000e+00	1.487015e+04	-7.309580e+03	0.000000e+00
					1.490000e+04	-6.991785e+03	0.000000e+00	1.434632e+04	-7.340104e+03	0.000000e+00	1.461365e+04	-7.391157e+03	0.000000e+00	1.466017e+04	-7.113627e+03	0.000000e+00
					1.516388e+04	-7.108649e+03	0.000000e+00	1.519896e+04	-6.954921e+03	0.000000e+00	1.522463e+04	-6.802707e+03	0.000000e+00	1.504350e+04	-6.973318e+03	0.000000e+00
[...]
			<PointData Scalars="bulk fluid density">
				<DataArray type="Float64" Name="bulk fluid density" NumberOfComponents="1" format="ascii">
					1.936302e+02	9.762278e+02	9.392213e+02	9.820286e+02	5.718094e+02	9.886780e+02	8.572504e+02	1.931853e+02
					3.279057e+02	4.096377e+02	4.058988e+02	4.006210e+02	3.905580e+02	3.968110e+02	3.898920e+02	3.654236e+02	1.000002e+03
					3.140928e+02	9.722561e+02	9.993924e+02	9.400707e+02	9.271180e+02	3.184360e+02	9.579485e+02	9.862065e+02	9.998873e+02
					2.803805e+02	9.996265e+02	9.995360e+02	9.955365e+02	3.416509e+02	4.316629e+02	1.569994e+02	9.998754e+02	9.998129e+02
					9.888473e+02	9.867953e+02	9.931293e+02	1.000526e+03	8.987467e+02	7.921129e+02	9.642626e+02	1.000193e+03	9.992296e+02
					9.973795e+02	5.139502e+02	9.995057e+02	4.179395e+02	9.914023e+02	9.904264e+02	9.513022e+02	4.158863e+02	4.890414e+02
					9.997424e+02	9.998908e+02	9.758065e+02	9.991129e+02	1.000326e+03	9.999268e+02	5.622204e+02	2.972375e+02	9.999448e+02
					9.998661e+02	9.971278e+02	1.000066e+03	9.994330e+02	9.998485e+02	9.995915e+02	7.165767e+02	4.580722e+02	5.867642e+02
					5.495290e+02	5.847996e+02	5.494333e+02	3.990926e+02	3.831127e+02	3.920042e+02	3.914766e+02	3.976375e+02	3.911743e+02
					4.424193e+02	4.434144e+02	3.098415e+02	4.446683e+02	4.427855e+02	4.491055e+02	4.355733e+02	4.337710e+02	3.185478e+02
					9.996948e+02	5.391034e+02	5.479115e+02	5.621122e+02	3.086449e+02	3.168857e+02	9.993461e+02	9.997802e+02	9.997633e+02
					9.998860e+02	9.946909e+02	3.576194e+02	3.496871e+02	3.409768e+02	2.522774e+02	2.343981e+02	3.106460e+02	3.647560e+02
					3.543702e+02	3.567068e+02	3.435848e+02	3.192117e+02	3.105625e+02	3.207896e+02	3.280125e+02	3.506292e+02	3.424378e+02
					3.176309e+02	3.319117e+02	3.013368e+02	3.254562e+02	5.148283e+02	9.998383e+02	9.868778e+02	4.105183e+02	4.179488e+02
					4.142366e+02	4.238606e+02	4.095655e+02	4.081998e+02	4.183816e+02	4.473601e+02	4.407745e+02	3.337233e+02	4.579306e+02
					4.632637e+02	4.625393e+02	3.383172e+02	3.574573e+02	3.498658e+02	3.138518e+02	3.078213e+02	3.100750e+02	3.263009e+02
					4.206054e+02	4.525465e+02	4.394902e+02	3.156205e+02	4.416602e+02	4.487334e+02	4.427408e+02	4.285226e+02	4.360832e+02
					3.073769e+02	3.962782e+02	3.824315e+02	3.897188e+02	3.901562e+02	4.227895e+02	4.098881e+02	4.164966e+02	9.912878e+02
					1.000010e+03	9.997354e+02	9.995225e+02	5.337200e+02	3.458280e+02	1.750513e+02	5.881328e+02	8.782774e+02	3.477282e+02
					9.872035e+02	3.025105e+02	1.084461e+03	4.613302e+02	2.157960e+02	3.519195e+02	1.598107e+02	1.935452e+02	1.999209e+02
					3.785938e+02	4.606920e+02	4.423308e+02	4.631143e+02	9.994382e+02	5.384832e+02	4.976969e+02	9.996793e+02	5.417141e+02
					5.660622e+02	3.415248e+02	5.626177e+02	5.450607e+02	5.423029e+02	5.668583e+02	5.622457e+02	3.831854e+02	3.908778e+02
					3.916201e+02	3.957326e+02	3.552058e+02	3.463703e+02	3.642039e+02	3.553419e+02	3.641008e+02	3.644538e+02	3.460183e+02
					3.474161e+02	3.824399e+02	3.534692e+02	3.824423e+02	3.841813e+02	4.075682e+02	4.348414e+02	4.486875e+02	4.481053e+02
					4.364867e+02	4.384975e+02	4.488494e+02	4.552452e+02	4.599376e+02	4.456263e+02	4.522336e+02	4.430268e+02	4.574414e+02
					4.525460e+02	3.798420e+02	4.323342e+02	4.363918e+02	4.239868e+02	4.376545e+02	4.396298e+02	4.287450e+02	4.281325e+02
					4.224985e+02	4.161483e+02	4.232943e+02	3.946038e+02	3.962511e+02	3.963482e+02	4.021072e+02	4.084483e+02	9.993855e+02
					9.998571e+02	9.992982e+02	9.995350e+02	9.998090e+02	9.995309e+02	9.996543e+02	1.000035e+03	9.979844e+02	9.937776e+02
					2.267229e+02	2.879431e+02	5.017126e+02	3.022496e+02	5.308782e+02	5.057939e+02	5.350811e+02	3.330630e+02	3.336446e+02
					4.018466e+02	3.727298e+02	4.900189e+02	3.373717e+02	4.910521e+02	6.845279e+02	5.114015e+02	8.215603e+02	5.217978e+02
					5.282632e+02	5.404128e+02	5.520988e+02	5.491888e+02	7.849250e+02	5.713842e+02	5.571850e+02	5.437986e+02	8.014150e+02
					5.294978e+02	5.388247e+02	5.634241e+02	4.079672e+02	5.552498e+02	5.668359e+02	5.439148e+02	9.995745e+02	9.997514e+02
					9.998000e+02	2.946763e+02	3.025487e+02	3.104452e+02	1.010310e+03	5.362193e+02	5.128496e+02	5.301271e+02	5.508393e+02
					1.047493e+03	6.611812e+02	1.076276e+03	5.618199e+02	5.449134e+02	3.300147e+02	3.205273e+02	4.585281e+02	4.468868e+02
					4.583437e+02	4.576881e+02	4.586865e+02	3.802393e+02	3.058783e+02	4.148554e+02	4.116669e+02	3.590315e+02	3.723435e+02
					3.818138e+02	3.707274e+02	3.978437e+02	4.053812e+02	3.965638e+02	3.805629e+02	3.743245e+02	3.728910e+02	3.635508e+02
					3.837140e+02	3.985667e+02	4.072069e+02	3.989810e+02	1.711241e+02	1.499039e+02	2.022637e+02	2.583898e+02	2.814881e+02
					2.009518e+02	2.737484e+02	2.584854e+02	2.310738e+02	1.871757e+02	1.996969e+02	4.543120e+02	1.704262e+02	1.887720e+02
					2.055299e+02	2.929299e+02	5.120904e+02	5.741355e+02	5.630076e+02	5.803671e+02	7.579666e+02	6.963733e+02	9.310662e+02
					5.832318e+02	5.589441e+02	8.503402e+02	5.539779e+02	5.683141e+02	8.852945e+02	1.052115e+03	9.133625e+02	3.796436e+02
					1.507222e+02	1.569075e+02	3.483031e+02	3.134600e+02	2.642095e+02	5.367262e+02	5.348400e+02	5.058180e+02	5.517072e+02
					5.165222e+02	5.700429e+02	5.629071e+02	5.489036e+02	9.997197e+02	9.996517e+02	9.998419e+02	9.998280e+02	9.986581e+02
					9.317705e+02	9.820847e+02	9.644685e+02	9.572810e+02	9.674183e+02	4.591962e+02	4.215212e+02	3.824511e+02	3.797062e+02
					3.586893e+02	3.685985e+02	3.860502e+02	3.716333e+02	3.635269e+02	3.979439e+02	3.974395e+02	4.033684e+02	4.050554e+02
					4.085830e+02	3.823029e+02	3.827879e+02	3.622675e+02	3.627265e+02	3.726352e+02	3.623025e+02	3.951130e+02	3.980849e+02
					4.103417e+02	4.108887e+02	3.983431e+02	4.030281e+02	4.045948e+02	4.108579e+02	1.863607e+02	1.804368e+02	1.795784e+02
					1.908093e+02	3.909113e+02	3.272772e+02	3.787434e+02	1.622869e+02	1.388048e+02	2.288929e+02	1.621017e+02	1.965100e+02
					2.631853e+02	3.238603e+02	1.576672e+02	1.909746e+02	3.434367e+02	3.678867e+02	3.587922e+02	1.590479e+02	4.309718e+02
					4.459045e+02	4.182378e+02	4.108087e+02	4.098249e+02	2.937270e+02	3.645192e+02	2.104386e+02	4.081845e+02	4.048131e+02
					4.303710e+02	4.470488e+02	3.892883e+02	3.476459e+02	3.667757e+02	3.400578e+02	3.915215e+02	3.980690e+02	3.902592e+02
					8.860009e+02	3.835401e+02	3.990644e+02	3.912739e+02	4.000039e+02	3.828029e+02	3.889330e+02	3.612540e+02	4.122469e+02
					4.361473e+02	5.651797e+02	5.385957e+02	5.616336e+02	9.998018e+02	4.045711e+02	3.989939e+02	4.033694e+02	4.085498e+02
					3.946755e+02	3.765841e+02	4.026355e+02	4.141959e+02	2.526840e+02	4.289609e+02	4.366360e+02	4.241128e+02	4.273564e+02
					4.220779e+02	4.169785e+02	4.199049e+02	4.137471e+02	3.985248e+02	4.107205e+02	4.067649e+02	4.159825e+02	4.218803e+02
					4.274757e+02	4.137132e+02	4.363958e+02	4.332428e+02	4.249306e+02	3.254004e+02	3.263995e+02	3.375636e+02	3.434092e+02
					3.337694e+02	3.832759e+02	3.855785e+02	3.734272e+02	3.737492e+02	3.639822e+02	3.699500e+02	3.381637e+02	3.225527e+02
					3.193074e+02	2.700772e+02	5.493402e+02	3.032155e+02	3.219350e+02	2.896111e+02	3.034724e+02	3.024236e+02	3.047646e+02
					3.451242e+02	3.286343e+02	3.192581e+02	3.298133e+02	3.398002e+02	3.192401e+02	3.188079e+02	3.647690e+02	3.570951e+02
					3.620452e+02	3.657683e+02	3.767801e+02	3.714325e+02	3.361755e+02	3.207351e+02	3.551284e+02	3.397044e+02	3.255401e+02
					3.316288e+02	3.457596e+02	3.271797e+02	3.274830e+02	3.367539e+02	3.458509e+02	3.362862e+02	3.277607e+02	3.623410e+02
					3.720271e+02	3.661405e+02	3.875248e+02	3.732039e+02	3.808448e+02	3.692472e+02	3.854498e+02	3.779705e+02	3.816671e+02
					5.125468e+02	3.072544e+02	3.020368e+02	5.019841e+02	3.094901e+02	5.072913e+02	3.098066e+02	4.807793e+02	1.831091e+02
					4.055271e+02	3.658054e+02	1.810866e+02	4.023149e+02	3.530062e+02	3.945356e+02	2.700154e+02	4.124958e+02	4.239422e+02
					4.297138e+02	4.358843e+02	4.241759e+02	4.355124e+02	4.468786e+02	4.354121e+02	4.476875e+02	4.228555e+02	4.168093e+02
					4.239144e+02	4.173111e+02	4.114259e+02	4.104146e+02	4.236050e+02	4.473761e+02	4.594888e+02	4.542493e+02	4.479625e+02
					4.554192e+02	4.562275e+02	4.516496e+02	4.294463e+02	4.230628e+02	4.271546e+02	4.308062e+02	4.365329e+02	4.608784e+02
					4.554697e+02	4.620207e+02	4.615125e+02	4.595034e+02	3.168411e+02	4.378405e+02	4.566279e+02	3.394742e+02	4.584269e+02
					4.658171e+02	4.637686e+02	4.653747e+02	4.645842e+02	4.531671e+02	4.477819e+02	4.612585e+02	4.591611e+02	4.463380e+02
					4.578279e+02	4.491815e+02	4.458664e+02	4.488413e+02	4.254926e+02	4.349804e+02	4.319532e+02	4.276839e+02	4.243233e+02
					4.323816e+02	4.362802e+02	4.117389e+02	3.977678e+02	4.036471e+02	4.147117e+02	3.979311e+02	4.287817e+02	3.473775e+02
					4.435807e+02	4.447150e+02	4.442606e+02	3.593018e+02	3.523485e+02	3.181151e+02	4.174576e+02	4.188921e+02	4.112464e+02
					4.235113e+02	4.236607e+02	2.136626e+02	4.065097e+02	3.965525e+02	4.361610e+02	4.197669e+02	4.157760e+02	3.804814e+02
					4.566936e+02	4.440663e+02	4.553554e+02	4.504004e+02	4.561596e+02	4.434124e+02	4.308772e+02	4.359409e+02	4.246378e+02
					4.276481e+02	4.347499e+02	4.229520e+02	4.311784e+02	4.340066e+02	2.582237e+02	9.860610e+02	4.033377e+02	5.500145e+02
					1.038747e+03	9.996975e+02	7.767421e+02	9.994607e+02	9.997338e+02	9.995630e+02	9.995596e+02	9.994647e+02	1.004159e+03
					1.001913e+03	1.002382e+03	1.002694e+03	1.003819e+03	1.004902e+03	1.004936e+03	1.004444e+03	7.305919e+02	4.613600e+02
					5.108134e+02	5.351804e+02	9.996229e+02	1.003658e+03	1.005095e+03	1.000908e+03	9.998839e+02	5.267424e+02	5.036534e+02
					5.044378e+02	5.499165e+02	7.918251e+02	4.349285e+02	8.575614e+02	4.541492e+02	8.178005e+02	5.109095e+02	2.927378e+02
					5.091116e+02	4.803279e+02	4.964294e+02	5.174231e+02	4.968669e+02	4.113064e+02	3.671369e+02	2.444232e+02	3.431467e+02
					3.330875e+02	3.029737e+02	3.220953e+02	2.599283e+02	3.441217e+02	3.288950e+02	3.081304e+02	3.003089e+02	3.114046e+02
					4.857268e+02	4.850547e+02	2.870093e+02	4.736784e+02	2.828642e+02	4.738466e+02	2.937210e+02	4.826234e+02	2.887513e+02
					4.722715e+02	5.273521e+02	5.024253e+02	4.776962e+02	4.994230e+02	2.863475e+02	3.066409e+02	2.885968e+02	2.929305e+02
					3.110001e+02	2.960169e+02	3.396064e+02	3.246936e+02	3.829877e+02	3.630097e+02	3.435963e+02	3.272700e+02	4.679169e+02
					3.049097e+02	4.837837e+02	2.953544e+02	3.078672e+02	3.446743e+02	3.530694e+02	3.510862e+02	3.444145e+02	3.630786e+02
					3.839001e+02	3.360593e+02	3.440983e+02	3.252725e+02	3.354544e+02	3.236667e+02	3.283088e+02	3.438474e+02	3.263576e+02
					3.449147e+02	3.361177e+02	3.283107e+02	3.324152e+02	3.051225e+02	3.138914e+02	2.982121e+02	3.048180e+02	2.908570e+02
					3.088677e+02	3.136423e+02	3.190937e+02	3.115996e+02	3.372526e+02	3.469494e+02	3.453518e+02	3.445647e+02	3.504331e+02
					3.669145e+02	3.637250e+02	3.833770e+02	2.508181e+02	4.356069e+02	2.459759e+02	2.384653e+02	2.299661e+02	2.604356e+02
					3.450692e+02	3.594591e+02	3.515699e+02	3.454773e+02	3.596241e+02	3.229434e+02	2.659659e+02	3.402568e+02	2.934518e+02
					3.428036e+02	3.202059e+02	3.332073e+02	3.281657e+02	9.990582e+02	9.962368e+02	1.000148e+03	9.971013e+02	9.963922e+02
					9.963085e+02	9.997513e+02	9.993598e+02	9.996087e+02	9.982996e+02	9.941070e+02	9.946259e+02	9.994904e+02	9.995386e+02
					9.990899e+02	9.996814e+02	9.995614e+02	2.896052e+02	2.957561e+02	3.084813e+02	3.092255e+02	3.286752e+02	3.100857e+02
					3.285304e+02	3.180004e+02	3.153878e+02	3.350418e+02	3.440997e+02	3.237218e+02	3.365570e+02	3.253921e+02	3.052288e+02
					3.237962e+02	3.063311e+02	3.159321e+02	4.519060e+02	5.127732e+02	6.365049e+02	4.166859e+02	5.282093e+02	5.380242e+02
					5.438139e+02	5.389937e+02	5.405508e+02	5.279251e+02	5.308327e+02	5.012898e+02	9.994585e+02	4.526483e+02	4.573375e+02
					4.450676e+02	4.428847e+02	4.400476e+02	4.478047e+02	4.410491e+02	4.360682e+02	4.645260e+02	4.388349e+02	4.357049e+02
					4.489980e+02	4.504271e+02	4.422783e+02	4.412809e+02	2.538213e+02	4.478262e+02	4.333752e+02	4.256662e+02	4.378301e+02
					8.372192e+02	8.411804e+02	8.868076e+02	8.075649e+02	7.282436e+02	8.365432e+02	7.627368e+02	7.334112e+02	5.225730e+02
					3.812489e+02	3.458108e+02	3.912546e+02	8.212851e+02	7.970554e+02	7.703684e+02	7.545616e+02	7.105405e+02	6.415616e+02
					6.869315e+02	7.065084e+02	3.243630e+02	3.404657e+02	2.641101e+02	4.326205e+02	4.184647e+02	5.061071e+02	3.569652e+02
					3.512152e+02	5.970613e+02	6.230623e+02	7.173353e+02	4.721074e+02	7.017562e+02	8.011997e+02	8.742816e+02	7.851889e+02
					4.015116e+02	4.093794e+02	3.965661e+02	3.991436e+02	4.035610e+02	7.994952e+02	7.651479e+02	7.743864e+02	1.001821e+03
					1.001818e+03	1.002983e+03	1.002258e+03	9.985697e+02	9.951879e+02	9.971086e+02	1.001087e+03	9.500327e+02	9.508032e+02
					9.635590e+02	9.614493e+02	8.734181e+02	8.465663e+02	8.998234e+02	8.802557e+02	1.001034e+03	9.960721e+02	9.938219e+02
					9.992838e+02	1.003365e+03	9.005809e+02	9.029524e+02	8.544279e+02	1.000133e+03	9.997118e+02	1.000940e+03	8.703564e+02
					8.855995e+02	8.581381e+02	5.284918e+02	8.251807e+02	5.437250e+02	9.442448e+02	9.757811e+02	9.368749e+02	6.505286e+02
					5.963138e+02	5.869717e+02	5.258696e+02	2.656675e+02	2.708764e+02	2.703162e+02	2.905449e+02	2.768625e+02	2.742821e+02
					4.059072e+02	3.719815e+02	3.926628e+02	3.914663e+02	2.688865e+02	2.637436e+02	2.942363e+02	2.929438e+02	1.866780e+02
					9.303557e+02	9.260584e+02	9.070088e+02	9.494118e+02	7.580206e+02	8.048508e+02	7.496552e+02	8.149500e+02	7.550297e+02
					6.776505e+02	4.764802e+02	2.700067e+02	2.676946e+02	4.998574e+02	8.520900e+02	8.218330e+02	8.224975e+02	8.639173e+02
					8.985417e+02	8.655856e+02	3.343939e+02	8.690822e+02	5.921533e+02	5.477179e+02	7.359147e+02	6.684978e+02	8.437228e+02
					8.918945e+02	7.338417e+02	7.539244e+02	6.709807e+02	9.102207e+02	2.949326e+02	5.087363e+02	3.773089e+02	7.246521e+02
					7.458892e+02	2.952883e+02	2.793391e+02	3.071484e+02	2.730366e+02	3.571219e+02	3.980879e+02	3.924672e+02	2.873673e+02
					2.902828e+02	2.466646e+02	2.542497e+02	2.791738e+02	3.032833e+02	2.733803e+02	3.927176e+02	3.796803e+02	4.319804e+02
					4.426716e+02	4.390557e+02	4.550828e+02	4.281955e+02	2.760061e+02	4.395289e+02	2.773707e+02	4.403288e+02	4.413236e+02
					4.514684e+02	3.151105e+02	2.747906e+02	2.797579e+02	2.646588e+02	2.725832e+02	2.799614e+02	2.879482e+02	3.957547e+02
					3.676735e+02	3.425205e+02	3.632220e+02	3.632140e+02	4.004492e+02	3.962160e+02	4.119591e+02	3.904376e+02	3.908102e+02
					3.559838e+02	9.829107e+02	1.001636e+03	9.980403e+02	1.002687e+03	8.405612e+02	7.726171e+02	7.240276e+02	8.152799e+02
					9.996138e+02	1.000769e+03	9.995694e+02	9.592719e+02	9.980552e+02	9.146556e+02	9.377301e+02	9.829683e+02	9.391550e+02
					9.546424e+02	9.260332e+02	9.816584e+02	9.731952e+02	9.835004e+02	1.000504e+03	9.980543e+02	1.000675e+03	1.002481e+03
					5.285041e+02	5.443083e+02	7.522692e+02	7.009039e+02	8.094454e+02	8.480462e+02	9.038720e+02	8.887234e+02	8.200561e+02
					3.159308e+02	3.364873e+02	3.190502e+02	3.000247e+02	9.534081e+02	8.979506e+02	8.173176e+02	8.321415e+02	1.000292e+03
					8.921039e+02	9.543100e+02	8.462651e+02	8.504303e+02	9.462794e+02	9.253287e+02	9.278585e+02	9.514112e+02	9.651385e+02
					9.763960e+02	9.641635e+02	9.771194e+02	9.937304e+02	9.792740e+02	9.825029e+02	1.002566e+03	9.991601e+02	9.940383e+02
					9.647973e+02	9.579545e+02	9.980498e+02	9.978339e+02	9.593307e+02	9.768250e+02	9.646111e+02	8.778429e+02	8.461624e+02
					8.805997e+02	9.071967e+02	7.708194e+02	7.393806e+02	6.891192e+02	7.285215e+02	8.204502e+02	8.592418e+02	8.680989e+02
					8.384829e+02	9.831536e+02	9.575162e+02	9.666359e+02	9.502272e+02	1.001970e+03	1.000687e+03	7.559702e+02	7.797077e+02
					9.337728e+02	9.587680e+02	9.499002e+02	9.999517e+02	1.001179e+03	9.948104e+02	9.849290e+02	9.294093e+02	9.170655e+02
					9.430324e+02	9.345035e+02	8.874300e+02	9.189256e+02	8.677767e+02	9.435607e+02	9.191989e+02	9.425816e+02	1.000917e+03
					1.001775e+03	1.002682e+03	1.002498e+03	9.968392e+02	9.915936e+02	9.982446e+02	1.000365e+03	1.001913e+03	1.002450e+03
					1.003745e+03	9.819736e+02	9.668213e+02	9.931449e+02	9.799848e+02	9.922283e+02	9.996720e+02	1.001965e+03	9.409165e+02
					7.911229e+02	7.720917e+02	8.901274e+02	5.472030e+02	4.905169e+02	6.145696e+02	6.125753e+02	5.297658e+02	3.516292e+02
					7.036956e+02	6.126094e+02	6.520529e+02	7.045723e+02	5.306775e+02	3.986809e+02	4.821695e+02	2.734454e+02	3.242105e+02
					2.891460e+02	3.938686e+02	2.573270e+02	3.238002e+02	3.283960e+02	2.705200e+02	2.931701e+02	4.003564e+02	2.219612e+02
					5.341305e+02	6.393303e+02	6.336904e+02	5.320199e+02	5.334663e+02	6.941925e+02	6.272377e+02	7.245072e+02	6.396605e+02
					8.793107e+02	9.238968e+02	7.446467e+02	8.515225e+02	7.885276e+02	8.279306e+02	8.222476e+02	8.128322e+02	7.805862e+02
					5.829779e+02	7.937903e+02	7.799882e+02	7.635399e+02	8.178562e+02	7.566188e+02	6.861877e+02	9.294148e+02	9.590301e+02
					8.563107e+02	9.179655e+02	7.791965e+02	8.562559e+02	7.928073e+02	8.152149e+02	8.759523e+02	9.906835e+02	9.977697e+02
					9.936978e+02	9.934513e+02	9.998659e+02	9.940965e+02	9.998026e+02	9.883358e+02	9.987299e+02	9.976903e+02	9.948533e+02
					9.986388e+02	1.001058e+03	1.000236e+03	1.000053e+03	9.989454e+02	1.001896e+03	1.000938e+03	1.000151e+03	1.002883e+03
					1.004480e+03	1.003844e+03	1.003416e+03	1.002280e+03	1.002517e+03	1.001236e+03	1.002677e+03	9.648857e+02	9.904651e+02
					1.002982e+03	1.002196e+03	1.003152e+03	1.003116e+03	1.002509e+03	1.002155e+03	1.001713e+03	1.002796e+03	9.428243e+02
					8.793183e+02	8.861410e+02	8.917389e+02	9.331424e+02	9.472112e+02	8.938908e+02	9.389993e+02	9.603221e+02	9.193478e+02
					8.836345e+02	9.384703e+02	9.206590e+02	9.641516e+02	9.495144e+02	9.243448e+02	9.700634e+02	9.978132e+02	9.563026e+02
					9.652472e+02	1.002347e+03	1.000499e+03	1.001792e+03	1.000687e+03	1.000799e+03	1.000149e+03	9.879287e+02	8.962142e+02
					8.869714e+02	9.067834e+02	9.162670e+02	8.984983e+02	7.842373e+02	8.437638e+02	8.268442e+02	7.881848e+02	8.236299e+02
					7.883368e+02	9.360915e+02	9.016984e+02	9.293937e+02	8.949849e+02	9.230851e+02	8.793335e+02	9.278415e+02	9.080533e+02
					9.057860e+02	9.095276e+02	8.895184e+02	8.547305e+02	8.232091e+02	8.574378e+02	7.989610e+02	8.630935e+02	8.564581e+02
					9.013746e+02	8.814533e+02	8.806046e+02	8.634294e+02	9.105564e+02	7.216030e+02	7.766506e+02	7.484266e+02	7.255560e+02
					6.143578e+02	7.019010e+02	6.743586e+02	7.634238e+02	8.388731e+02	7.820614e+02	8.429745e+02	8.077326e+02	7.981614e+02
					8.572857e+02	9.465427e+02	9.162401e+02	9.468926e+02	8.967243e+02	9.848584e+02	1.002774e+03	1.002711e+03	1.003033e+03
					1.002789e+03	1.003324e+03	1.000668e+03	9.981950e+02	1.002134e+03	1.000978e+03	9.997840e+02	1.000734e+03	9.902778e+02
					9.025958e+02	9.471028e+02	8.096505e+02	8.687498e+02	8.055956e+02	8.238379e+02	7.656507e+02	7.034685e+02	6.565096e+02
					6.774476e+02	7.191930e+02	7.746594e+02	6.969367e+02	7.837974e+02	9.549434e+02	9.289091e+02	9.108547e+02	8.495739e+02
					8.711490e+02	9.728057e+02	9.436756e+02	8.482246e+02	8.164712e+02	7.788018e+02	9.430404e+02	8.890652e+02	9.223308e+02
					9.404809e+02	8.948884e+02	9.143835e+02	9.712069e+02	9.893376e+02	9.931976e+02	9.869017e+02	9.738389e+02	9.802395e+02
					9.886546e+02	9.883957e+02	9.799445e+02	9.351918e+02	9.098160e+02	8.912806e+02	9.250619e+02	9.428455e+02	8.987143e+02
					9.223799e+02	1.000758e+03	1.002582e+03	1.001761e+03	9.704595e+02	9.131591e+02	9.089218e+02	1.000628e+03	1.002811e+03
					9.903244e+02	9.470123e+02	9.984082e+02	9.970653e+02	9.768962e+02	1.002072e+03	1.003083e+03	1.002475e+03	9.947034e+02
					9.973262e+02	1.001828e+03	1.002016e+03	1.002446e+03	9.651369e+02	9.821291e+02	9.731506e+02	9.802411e+02	9.915019e+02
					9.191129e+02	9.712249e+02	9.886091e+02	9.750656e+02	9.391569e+02	9.792474e+02	9.823052e+02	9.035149e+02	9.438383e+02
					8.848335e+02	9.604855e+02	9.765355e+02	9.665772e+02	8.984182e+02	9.274077e+02	8.445991e+02	9.359540e+02	9.932795e+02