<?xml version="1.0"?>

<!--
CSMP_Simulation
-->

<VTKFile type="UnstructuredGrid" version="1.0" byte_order="LittleEndian">
	<UnstructuredGrid>
		<Piece NumberOfPoints="2922" NumberOfCells="5619">
			<Points>
				<DataArray type="Float64" Name="Position" NumberOfComponents="3" format="ascii">
					1.062348e+04	-6.219427e+03	0.000000e+00	1.328123e+04	-3.388001e+03	0.000000e+00	6.533000e+03	-2.871000e+03	0.000000e+00	8.993999e+03	3.450022e+02	0.000000e+00
					6.434000e+03	-6.251000e+03	0.000000e+00	6.415000e+03	-1.312000e+03	0.000000e+00	8.891000e+03	-1.610000e+02	0.000000e+00	1.593372e+04	-6.223812e+03	0.000000e+00
					1.243124e+04	-5.182061e+03	0.000000e+00	1.180818e+04	-6.661451e+03	0.000000e+00	1.199040e+04	-6.569837e+03	0.000000e+00	1.186573e+04	-6.450233e+03	0.000000e+00
					1.224666e+04	-6.222517e+03	0.000000e+00	1.208180e+04	-6.360720e+03	0.000000e+00	1.135568e+04	-6.216921e+03	0.000000e+00	1.177466e+04	-5.800292e+03	0.000000e+00
					1.484109e+03	2.369937e+02	0.000000e+00	1.048845e+04	-4.576829e+03	0.000000e+00	5.088007e+03	2.164612e+02	0.000000e+00	1.616065e+04	6.885872e+02	0.000000e+00
					5.856588e+03	2.844799e+02	0.000000e+00	5.964146e+03	2.322470e+02	0.000000e+00	1.285384e+04	-8.473227e+03	0.000000e+00	6.554646e+03	2.976259e+02	0.000000e+00
					6.220259e+03	3.810972e+02	0.000000e+00	2.455667e+03	2.604214e+02	0.000000e+00	1.185441e+04	-8.594387e+03	0.000000e+00	8.953729e+02	2.424411e+02	0.000000e+00
					1.642061e+04	5.389531e+02	0.000000e+00	9.022812e+03	5.486281e+02	0.000000e+00	1.072547e+04	-4.265213e+03	0.000000e+00	1.596156e+04	-4.568462e+03	0.000000e+00
					1.049681e+04	-6.339904e+03	0.000000e+00	1.229884e+04	9.679014e+02	0.000000e+00	1.346081e+04	9.303555e+02	0.000000e+00	7.674576e+03	2.576962e+02	0.000000e+00
					8.121128e+03	2.577928e+02	0.000000e+00	8.390419e+03	2.530714e+02	0.000000e+00	1.759058e+04	3.107264e+02	0.000000e+00	1.283469e+04	-3.190105e+03	0.000000e+00
					1.310544e+04	-3.163050e+03	0.000000e+00	6.218396e+03	2.847346e+02	0.000000e+00	1.964998e+04	3.306567e+02	0.000000e+00	1.089832e+04	6.517557e+02	0.000000e+00
					9.482042e+03	5.002750e+02	0.000000e+00	1.461891e+04	-3.601876e+03	0.000000e+00	1.694475e+04	2.822433e+02	0.000000e+00	1.223129e+04	-8.439639e+03	0.000000e+00
					7.092101e+03	3.133630e+02	0.000000e+00	7.447673e+03	2.954910e+02	0.000000e+00	5.479449e+03	3.927924e+02	0.000000e+00	1.430834e+04	-8.440884e+03	0.000000e+00
					1.346187e+04	-3.101654e+03	0.000000e+00	1.466219e+04	5.912805e+02	0.000000e+00	1.431424e+04	6.995984e+02	0.000000e+00	1.198158e+04	-3.600157e+03	0.000000e+00
					1.519729e+04	6.008027e+02	0.000000e+00	1.732254e+04	2.914492e+02	0.000000e+00	1.847268e+04	5.552377e+02	0.000000e+00	1.373014e+04	-3.092539e+03	0.000000e+00
					1.598609e+04	-4.803680e+03	0.000000e+00	1.811668e+03	2.957238e+02	0.000000e+00	2.068111e+03	3.301681e+02	0.000000e+00	3.593477e+02	6.241832e-01	0.000000e+00
					1.315684e+04	9.290093e+02	0.000000e+00	9.757773e+03	6.136685e+02	0.000000e+00	1.013994e+04	6.394650e+02	0.000000e+00	9.949611e+03	7.276424e+02	0.000000e+00
					1.479179e+04	-3.977888e+03	0.000000e+00	1.474764e+04	-3.691732e+03	0.000000e+00	1.224233e+04	-3.775151e+03	0.000000e+00	1.235721e+04	-3.992361e+03	0.000000e+00
					1.239488e+04	-3.732875e+03	0.000000e+00	1.247959e+04	-3.889221e+03	0.000000e+00	1.489970e+04	-6.402044e+03	0.000000e+00	1.471371e+04	-6.063480e+03	0.000000e+00
					1.503558e+04	-6.243497e+03	0.000000e+00	1.463383e+04	-6.231790e+03	0.000000e+00	1.359516e+04	-6.370837e+03	0.000000e+00	1.336635e+04	-6.229341e+03	0.000000e+00
					1.486979e+04	-7.470250e+03	0.000000e+00	1.455711e+04	-7.489929e+03	0.000000e+00	1.120299e+04	-4.942350e+03	0.000000e+00	1.218357e+04	-7.531530e+03	0.000000e+00
					1.251446e+04	-7.480192e+03	0.000000e+00	1.240108e+04	-7.647510e+03	0.000000e+00	1.239322e+04	-7.293615e+03	0.000000e+00	1.368325e+04	-7.242141e+03	0.000000e+00
					1.217897e+04	-5.028812e+03	0.000000e+00	1.378964e+04	8.854108e+02	0.000000e+00	1.351945e+04	-3.856343e+03	0.000000e+00	1.333151e+04	-3.674419e+03	0.000000e+00
					1.350782e+04	-3.520236e+03	0.000000e+00	1.479244e+04	-4.909493e+03	0.000000e+00	1.380050e+04	-4.989557e+03	0.000000e+00	3.084262e+03	3.746820e+02	0.000000e+00
					3.006144e+03	2.572346e+02	0.000000e+00	1.252005e+03	2.691829e+02	0.000000e+00	1.642126e+03	2.829086e+02	0.000000e+00	8.235090e+03	4.169793e+02	0.000000e+00
					1.537108e+04	-5.728762e+03	0.000000e+00	1.550100e+04	-5.598568e+03	0.000000e+00	1.543359e+04	-5.440257e+03	0.000000e+00	1.516251e+04	-4.367050e+03	0.000000e+00
					1.542543e+04	-4.626431e+03	0.000000e+00	1.547978e+04	-4.435709e+03	0.000000e+00	1.421355e+04	-5.774419e+03	0.000000e+00	1.398427e+04	-5.607986e+03	0.000000e+00
					1.433859e+04	-5.644592e+03	0.000000e+00	1.422646e+04	-5.431404e+03	0.000000e+00	1.278519e+04	-5.034132e+03	0.000000e+00	1.297347e+04	-4.888217e+03	0.000000e+00
					1.308886e+04	-5.058455e+03	0.000000e+00	1.295570e+04	-5.179625e+03	0.000000e+00	1.371210e+04	-5.548806e+03	0.000000e+00	1.306586e+04	-5.417419e+03	0.000000e+00
					1.398961e+04	-5.001093e+03	0.000000e+00	1.423737e+04	-5.238687e+03	0.000000e+00	1.553662e+04	-5.035070e+03	0.000000e+00	1.541510e+04	-5.176839e+03	0.000000e+00
					1.433199e+04	-4.490070e+03	0.000000e+00	1.772795e+04	4.701005e+02	0.000000e+00	1.301714e+04	-3.340203e+03	0.000000e+00	1.291928e+04	-6.673458e+03	0.000000e+00
					1.305404e+04	-6.847013e+03	0.000000e+00	1.275393e+04	-6.763001e+03	0.000000e+00	1.299225e+04	-6.992535e+03	0.000000e+00	1.111766e+04	-6.671729e+03	0.000000e+00
					1.100675e+04	-6.816450e+03	0.000000e+00	1.117046e+04	-6.969377e+03	0.000000e+00	1.205000e+04	-8.078535e+03	0.000000e+00	1.184148e+04	-7.859306e+03	0.000000e+00
					1.196430e+04	-8.231484e+03	0.000000e+00	1.298170e+04	-7.885249e+03	0.000000e+00	1.295062e+04	-8.221395e+03	0.000000e+00	1.309178e+04	-8.017537e+03	0.000000e+00
					1.120470e+04	-5.453850e+03	0.000000e+00	1.115255e+04	-5.738876e+03	0.000000e+00	1.126426e+04	-5.604117e+03	0.000000e+00	1.184009e+04	-5.022972e+03	0.000000e+00
					1.172669e+04	-4.862486e+03	0.000000e+00	1.153323e+04	-4.959783e+03	0.000000e+00	1.175756e+04	-5.171477e+03	0.000000e+00	1.534244e+04	-6.934844e+03	0.000000e+00
					1.455437e+04	-8.098472e+03	0.000000e+00	1.476956e+04	-7.877258e+03	0.000000e+00	1.464624e+04	-8.340289e+03	0.000000e+00	1.404268e+04	-7.444684e+03	0.000000e+00
					1.421918e+04	-7.630822e+03	0.000000e+00	1.428388e+04	-7.472196e+03	0.000000e+00	1.526650e+04	-7.239097e+03	0.000000e+00	1.513630e+04	-7.368500e+03	0.000000e+00
					1.581589e+04	-5.652546e+03	0.000000e+00	1.296440e+04	-6.343040e+03	0.000000e+00	1.295470e+04	-6.059130e+03	0.000000e+00	1.303797e+04	-6.200013e+03	0.000000e+00
					1.273442e+04	-6.210589e+03	0.000000e+00	1.360396e+04	-6.962240e+03	0.000000e+00	1.362392e+04	-6.655270e+03	0.000000e+00	1.339020e+04	-6.812359e+03	0.000000e+00
					6.442692e+03	4.405175e+02	0.000000e+00	3.840145e+03	2.404374e+02	0.000000e+00	3.475756e+03	2.459832e+02	0.000000e+00	3.582548e+03	3.131050e+02	0.000000e+00
					1.179383e+04	-4.550717e+03	0.000000e+00	1.173986e+04	-5.484162e+03	0.000000e+00	1.062189e+04	-5.748233e+03	0.000000e+00	1.180024e+04	-3.998124e+03	0.000000e+00
					1.173389e+04	-3.844468e+03	0.000000e+00	1.197836e+04	-3.861204e+03	0.000000e+00	1.188099e+04	-3.736811e+03	0.000000e+00	1.137465e+04	-4.416604e+03	0.000000e+00
					1.124799e+04	-4.291994e+03	0.000000e+00	1.108948e+04	-4.439061e+03	0.000000e+00	1.120866e+04	-4.578218e+03	0.000000e+00	1.076080e+04	-6.185724e+03	0.000000e+00
					1.052158e+04	-6.171076e+03	0.000000e+00	1.061654e+04	-6.082875e+03	0.000000e+00	1.068627e+04	-6.344822e+03	0.000000e+00	1.547934e+04	-6.007495e+03	0.000000e+00
					1.239362e+04	-8.015408e+03	0.000000e+00	1.231714e+04	-8.236339e+03	0.000000e+00	1.259828e+04	-8.069267e+03	0.000000e+00	1.701531e+04	4.509240e+02	0.000000e+00
					1.277290e+04	-3.855596e+03	0.000000e+00	1.248342e+04	-4.291681e+03	0.000000e+00	1.951687e+04	4.566190e+02	0.000000e+00	1.409639e+04	-3.762137e+03	0.000000e+00
					1.395297e+04	-3.853813e+03	0.000000e+00	1.426096e+04	-3.882789e+03	0.000000e+00	1.412655e+04	-4.015160e+03	0.000000e+00	1.454529e+04	-4.454906e+03	0.000000e+00
					1.477335e+04	-4.577894e+03	0.000000e+00	1.473337e+04	-4.284850e+03	0.000000e+00	1.486818e+04	-4.392328e+03	0.000000e+00	1.182077e+04	-6.079763e+03	0.000000e+00
					1.161805e+04	-6.234353e+03	0.000000e+00	1.190807e+04	-6.249025e+03	0.000000e+00	1.174207e+04	-6.340720e+03	0.000000e+00	1.216930e+04	-5.632604e+03	0.000000e+00
					1.242431e+04	-5.486649e+03	0.000000e+00	1.241345e+04	-5.774949e+03	0.000000e+00	1.249642e+04	-5.631837e+03	0.000000e+00	1.225177e+04	-5.774741e+03	0.000000e+00
					1.257980e+04	-5.777980e+03	0.000000e+00	1.225809e+04	-5.482228e+03	0.000000e+00	1.256570e+04	-5.502870e+03	0.000000e+00	1.238428e+04	-6.062964e+03	0.000000e+00
					1.282796e+04	-5.599574e+03	0.000000e+00	1.196367e+04	-6.067125e+03	0.000000e+00	1.167268e+04	-6.097839e+03	0.000000e+00	1.277630e+04	-6.604007e+03	0.000000e+00
					1.500551e+04	-7.272801e+03	0.000000e+00	1.436310e+04	-7.629506e+03	0.000000e+00	1.405447e+04	-7.614436e+03	0.000000e+00	1.378616e+04	-7.311337e+03	0.000000e+00
					1.449798e+04	-7.361653e+03	0.000000e+00	1.450249e+04	-7.635568e+03	0.000000e+00	1.431253e+04	-7.811639e+03	0.000000e+00	1.414808e+04	-7.968868e+03	0.000000e+00
					1.487244e+04	-7.758708e+03	0.000000e+00	1.460617e+04	-7.765267e+03	0.000000e+00	1.424603e+04	-8.234521e+03	0.000000e+00	1.448709e+04	-7.900806e+03	0.000000e+00
					1.464000e+04	-7.940785e+03	0.000000e+00	1.490539e+04	-7.933881e+03	0.000000e+00	1.510985e+04	-7.219671e+03	0.000000e+00	1.487015e+04	-7.309580e+03	0.000000e+00
					1.490000e+04	-6.991785e+03	0.000000e+00	1.434632e+04	-7.340104e+03	0.000000e+00	1.461365e+04	-7.391157e+03	0.000000e+00	1.466017e+04	-7.113627e+03	0.000000e+00
					1.516388e+04	-7.108649e+03	0.000000e+00	1.519896e+04	-6.954921e+03	0.000000e+00	1.522463e+04	-6.802707e+03	0.000000e+00	1.504350e+04	-6.973318e+03	0.000000e+00
[...]
			<PointData Scalars="bulk fluid density">
				<DataArray type="Float64" Name="bulk fluid density" NumberOfComponents="1" format="ascii">
					2.104596e+02	6.148618e+02	9.596755e+02	9.831127e+02	6.192723e+02	9.895605e+02	8.810590e+02	2.139697e+02
					5.227014e+02	4.095065e+02	4.057324e+02	4.004422e+02	3.903067e+02	3.966159e+02	3.854711e+02	3.601002e+02	1.000002e+03
					5.358428e+02	9.836698e+02	9.993930e+02	9.585121e+02	9.531129e+02	3.253437e+02	9.709494e+02	9.903619e+02	9.998889e+02
					2.828782e+02	9.996271e+02	9.995613e+02	9.956770e+02	5.894392e+02	6.048743e+02	1.639829e+02	9.998765e+02	9.998143e+02
					9.916539e+02	9.891158e+02	9.939197e+02	1.000530e+03	6.291202e+02	6.707173e+02	9.752954e+02	1.000202e+03	9.993328e+02
					9.973637e+02	6.747596e+02	9.996415e+02	4.121873e+02	9.953237e+02	9.933528e+02	9.625551e+02	4.101004e+02	7.133454e+02
					9.997919e+02	9.998951e+02	4.708376e+02	9.992308e+02	1.000349e+03	9.999274e+02	7.334803e+02	5.224061e+02	9.999452e+02
					9.998664e+02	9.972301e+02	1.000068e+03	9.994548e+02	9.998615e+02	9.995927e+02	5.591852e+02	6.601872e+02	7.109398e+02
					6.125107e+02	7.434090e+02	6.529833e+02	3.976115e+02	3.787628e+02	3.870765e+02	3.912071e+02	3.976134e+02	3.910371e+02
					4.421339e+02	4.432029e+02	2.590398e+02	4.446441e+02	4.428015e+02	4.490783e+02	4.355690e+02	4.337743e+02	5.592177e+02
					9.996961e+02	6.738927e+02	5.619368e+02	5.897550e+02	6.102668e+02	5.407440e+02	9.993463e+02	9.997825e+02	9.997638e+02
					9.998865e+02	9.951845e+02	3.584352e+02	3.349519e+02	3.078275e+02	4.547469e+02	3.678668e+02	5.035738e+02	3.644786e+02
					3.541178e+02	3.559138e+02	5.237065e+02	5.214538e+02	5.346462e+02	5.131413e+02	5.007896e+02	3.504233e+02	3.421905e+02
					5.509596e+02	5.436176e+02	3.295121e+02	2.690471e+02	5.997688e+02	9.998395e+02	6.075932e+02	4.104811e+02	4.180707e+02
					4.141891e+02	4.240068e+02	4.046870e+02	4.011051e+02	4.153683e+02	4.420958e+02	4.381976e+02	3.353882e+02	4.578751e+02
					4.596087e+02	4.621401e+02	3.369977e+02	3.588243e+02	3.506247e+02	5.879203e+02	5.977674e+02	5.889657e+02	5.837425e+02
					4.173818e+02	4.472502e+02	4.400435e+02	3.195112e+02	4.416747e+02	4.487072e+02	4.427545e+02	4.268556e+02	4.348427e+02
					2.806812e+02	3.962386e+02	3.822006e+02	3.895008e+02	3.899219e+02	4.229802e+02	4.098492e+02	4.165453e+02	9.938017e+02
					1.000010e+03	9.997450e+02	9.995232e+02	5.987598e+02	3.469734e+02	2.256055e+02	6.299083e+02	4.451064e+02	5.929039e+02
					4.474266e+02	6.789227e+02	3.906312e+02	3.767888e+02	4.102592e+02	3.437491e+02	1.770157e+02	2.117456e+02	2.181754e+02
					3.761993e+02	4.596673e+02	4.423975e+02	4.618291e+02	9.994684e+02	6.316495e+02	5.890901e+02	9.996807e+02	5.837635e+02
					6.154527e+02	5.580793e+02	5.784449e+02	5.776127e+02	5.647790e+02	6.137838e+02	6.447613e+02	3.820353e+02	3.875836e+02
					3.913952e+02	3.955284e+02	3.564079e+02	3.474506e+02	3.639906e+02	3.551000e+02	3.638807e+02	3.642528e+02	5.137594e+02
					3.471432e+02	3.821325e+02	3.532558e+02	3.820815e+02	3.790427e+02	4.075520e+02	4.345617e+02	4.486353e+02	4.480915e+02
					4.364829e+02	4.382985e+02	4.485141e+02	4.550120e+02	4.592226e+02	4.440960e+02	4.512554e+02	4.427754e+02	4.562715e+02
					4.499980e+02	3.754453e+02	4.317738e+02	4.362852e+02	4.242081e+02	4.375907e+02	4.394732e+02	4.287156e+02	4.278941e+02
					4.223336e+02	4.150029e+02	4.234469e+02	3.944352e+02	3.961699e+02	3.962281e+02	4.020829e+02	4.084261e+02	9.994259e+02
					9.998637e+02	9.994223e+02	9.995864e+02	9.998192e+02	9.995313e+02	9.996560e+02	1.000036e+03	9.981958e+02	9.939232e+02
					6.903822e+02	6.533705e+02	6.090694e+02	5.884697e+02	6.033628e+02	6.059204e+02	6.930308e+02	5.415409e+02	5.591468e+02
					6.343253e+02	5.974066e+02	6.441067e+02	5.974979e+02	6.377141e+02	5.433042e+02	5.204883e+02	6.051809e+02	6.924427e+02
					5.741178e+02	4.459906e+02	5.431997e+02	5.742696e+02	5.997940e+02	6.028535e+02	5.909956e+02	6.048659e+02	6.153710e+02
					5.897986e+02	5.624193e+02	5.783452e+02	5.419388e+02	5.446011e+02	6.318012e+02	5.645364e+02	9.995865e+02	9.997521e+02
					9.998005e+02	5.766899e+02	5.648288e+02	5.554591e+02	4.420224e+02	4.392674e+02	5.818896e+02	4.212592e+02	7.248933e+02
					4.919234e+02	6.417272e+02	5.326765e+02	7.312338e+02	5.844376e+02	3.364543e+02	3.286645e+02	4.547358e+02	4.417794e+02
					4.539801e+02	4.552163e+02	4.584273e+02	3.742774e+02	3.090146e+02	4.147608e+02	4.115139e+02	3.673335e+02	3.687662e+02
					3.784386e+02	3.682754e+02	3.938108e+02	4.051302e+02	3.932340e+02	3.778594e+02	3.740578e+02	3.669947e+02	3.605074e+02
					3.833669e+02	3.983961e+02	4.070357e+02	3.987585e+02	1.764514e+02	1.863183e+02	2.635842e+02	4.009990e+02	2.843379e+02
					2.976362e+02	2.903825e+02	2.853223e+02	2.855591e+02	2.582834e+02	2.899848e+02	4.175702e+02	2.596434e+02	7.363538e+02
					4.196800e+02	2.703868e+02	3.884107e+02	6.636784e+02	6.519188e+02	6.875698e+02	3.809470e+02	3.853292e+02	5.212632e+02
					6.036674e+02	5.717788e+02	4.078643e+02	6.412294e+02	6.680089e+02	4.822747e+02	4.118475e+02	4.331139e+02	3.762332e+02
					2.043128e+02	2.346839e+02	3.306315e+02	2.567345e+02	5.223644e+02	5.733516e+02	5.949325e+02	5.917258e+02	5.454053e+02
					5.901580e+02	6.373625e+02	6.597150e+02	5.615214e+02	9.997381e+02	9.996535e+02	9.998414e+02	9.998444e+02	9.991423e+02
					9.566518e+02	9.880383e+02	9.818472e+02	9.718729e+02	9.804222e+02	4.571037e+02	4.218022e+02	3.821561e+02	3.795038e+02
					3.584655e+02	3.684203e+02	3.857715e+02	3.714267e+02	3.633129e+02	3.977823e+02	3.973608e+02	4.033567e+02	4.049994e+02
					4.085578e+02	3.820756e+02	3.825334e+02	3.620891e+02	3.625502e+02	3.724675e+02	3.621256e+02	3.950662e+02	3.980652e+02
					4.103001e+02	4.108395e+02	3.983250e+02	4.030173e+02	4.045827e+02	4.108094e+02	2.200060e+02	1.840131e+02	1.974565e+02
					2.095702e+02	3.846695e+02	3.148734e+02	3.775388e+02	2.356445e+02	2.571790e+02	3.168254e+02	2.981914e+02	3.140977e+02
					3.885508e+02	2.883068e+02	2.482282e+02	2.298517e+02	3.252390e+02	3.691585e+02	3.468794e+02	1.805284e+02	4.273004e+02
					4.441443e+02	4.181637e+02	4.103574e+02	4.058328e+02	3.043504e+02	3.545761e+02	2.290526e+02	4.026342e+02	3.957001e+02
					4.303249e+02	4.462667e+02	3.847671e+02	3.393830e+02	3.594894e+02	3.309789e+02	3.913040e+02	3.979859e+02	3.900191e+02
					5.059124e+02	3.831308e+02	3.988664e+02	3.910463e+02	3.961759e+02	3.776802e+02	3.856934e+02	3.581338e+02	4.121495e+02
					4.293342e+02	7.418531e+02	4.406808e+02	6.265968e+02	9.998028e+02	4.044217e+02	3.910624e+02	3.998253e+02	4.042893e+02
					3.912534e+02	3.752595e+02	3.931991e+02	4.089142e+02	2.541490e+02	4.289957e+02	4.366327e+02	4.241896e+02	4.272599e+02
					4.222846e+02	4.170633e+02	4.201252e+02	4.136972e+02	3.983600e+02	4.106197e+02	4.066144e+02	4.158579e+02	4.219217e+02
					4.273765e+02	4.135242e+02	4.363926e+02	4.332489e+02	4.250418e+02	5.071076e+02	5.098551e+02	4.419370e+02	3.433451e+02
					3.356690e+02	3.830410e+02	3.853146e+02	3.732457e+02	3.735255e+02	3.637803e+02	3.686433e+02	3.230211e+02	3.125578e+02
					2.516670e+02	6.476982e+02	5.417784e+02	5.350861e+02	5.678454e+02	5.751410e+02	6.018538e+02	3.402106e+02	5.958094e+02
					3.431307e+02	3.149144e+02	3.166583e+02	3.314525e+02	3.408128e+02	3.451618e+02	2.614667e+02	3.616247e+02	3.537451e+02
					3.596988e+02	3.665941e+02	3.735681e+02	3.684414e+02	2.755455e+02	2.632631e+02	3.548779e+02	3.199999e+02	2.559617e+02
					2.631363e+02	5.430112e+02	5.676351e+02	5.520582e+02	5.315386e+02	5.272547e+02	5.629971e+02	5.374157e+02	3.573449e+02
					3.717982e+02	3.648405e+02	3.872126e+02	3.698398e+02	3.805358e+02	3.648601e+02	3.801501e+02	3.728099e+02	3.778350e+02
					5.961287e+02	5.925658e+02	5.834419e+02	5.925305e+02	5.803273e+02	5.974188e+02	5.674296e+02	5.826207e+02	2.020547e+02
					3.945135e+02	3.627458e+02	2.127998e+02	3.969880e+02	3.402752e+02	3.884591e+02	2.721952e+02	4.123865e+02	4.240055e+02
					4.296975e+02	4.358163e+02	4.243559e+02	4.354449e+02	4.461507e+02	4.354083e+02	4.476822e+02	4.230515e+02	4.167539e+02
					4.238900e+02	4.172418e+02	4.112968e+02	4.102403e+02	4.236823e+02	4.473718e+02	4.592746e+02	4.542456e+02	4.477825e+02
					4.551321e+02	4.546643e+02	4.504726e+02	4.294833e+02	4.232194e+02	4.272076e+02	4.307527e+02	4.362232e+02	4.573961e+02
					4.517036e+02	4.614108e+02	4.606296e+02	4.554843e+02	3.240219e+02	4.310038e+02	4.514536e+02	3.447969e+02	4.541945e+02
					4.638934e+02	4.629592e+02	4.633892e+02	4.624759e+02	4.531710e+02	4.477763e+02	4.609606e+02	4.590512e+02	4.463396e+02
					4.577751e+02	4.491720e+02	4.453398e+02	4.460042e+02	4.256299e+02	4.344060e+02	4.318027e+02	4.272841e+02	4.244656e+02
					4.312196e+02	4.360802e+02	4.116082e+02	3.967399e+02	4.034731e+02	4.145289e+02	3.934790e+02	4.250985e+02	3.483392e+02
					4.418017e+02	4.428280e+02	4.435645e+02	3.631588e+02	3.540404e+02	3.211809e+02	4.164857e+02	4.188194e+02	4.081568e+02
					4.229678e+02	4.209932e+02	2.362698e+02	4.021486e+02	3.926312e+02	4.361572e+02	4.200089e+02	4.158150e+02	3.737333e+02
					4.566075e+02	4.440777e+02	4.552611e+02	4.503893e+02	4.560609e+02	4.434272e+02	4.309066e+02	4.359367e+02	4.247513e+02
					4.276963e+02	4.347467e+02	4.231324e+02	4.312062e+02	4.340077e+02	4.171992e+02	6.121279e+02	5.634307e+02	6.880389e+02
					5.572068e+02	9.996992e+02	3.685501e+02	9.994618e+02	9.997354e+02	9.995638e+02	9.995603e+02	9.994653e+02	1.004223e+03
					1.001917e+03	1.002394e+03	1.002704e+03	1.003854e+03	1.005357e+03	1.005130e+03	1.004548e+03	6.135882e+02	5.827670e+02
					5.573655e+02	4.509631e+02	9.996232e+02	1.003721e+03	1.005581e+03	1.000909e+03	9.998846e+02	6.230922e+02	5.855403e+02
					5.766625e+02	5.677056e+02	6.311026e+02	5.866353e+02	6.256640e+02	6.746224e+02	6.574791e+02	6.925457e+02	5.971979e+02
					5.849596e+02	5.934955e+02	5.965986e+02	5.816361e+02	6.054612e+02	5.821880e+02	5.623075e+02	4.736021e+02	3.409978e+02
					3.030827e+02	2.955819e+02	2.650666e+02	4.170720e+02	3.596345e+02	5.634689e+02	5.917643e+02	5.910306e+02	5.737938e+02
					6.032563e+02	5.865730e+02	5.853153e+02	5.904604e+02	5.865910e+02	5.863790e+02	5.721968e+02	5.862240e+02	5.771797e+02
					5.841188e+02	5.125230e+02	5.751267e+02	5.867802e+02	5.854880e+02	5.906253e+02	5.495382e+02	5.790426e+02	5.709495e+02
					5.458498e+02	5.716608e+02	3.394825e+02	5.101652e+02	3.827051e+02	3.628326e+02	3.433477e+02	5.135478e+02	5.959739e+02
					5.647717e+02	6.008358e+02	5.832348e+02	5.673667e+02	3.444473e+02	3.528606e+02	3.508713e+02	3.441753e+02	3.629110e+02
					3.836043e+02	3.367482e+02	3.438999e+02	5.165031e+02	5.037753e+02	5.481212e+02	5.188685e+02	3.443755e+02	5.308343e+02
					3.461778e+02	5.219065e+02	5.009312e+02	3.340040e+02	5.474838e+02	5.314920e+02	5.597103e+02	5.491408e+02	5.738363e+02
					5.373140e+02	5.309499e+02	5.344107e+02	5.385058e+02	5.461098e+02	3.501860e+02	5.368616e+02	5.536042e+02	4.308299e+02
					3.661559e+02	3.635000e+02	3.830602e+02	4.799808e+02	5.930470e+02	3.670170e+02	4.058560e+02	3.427970e+02	3.822553e+02
					3.433930e+02	3.566825e+02	3.492502e+02	3.443757e+02	3.577411e+02	2.956152e+02	4.491119e+02	2.842305e+02	3.474051e+02
					2.878474e+02	3.214878e+02	2.820398e+02	2.830073e+02	9.991652e+02	9.976319e+02	1.000150e+03	9.972527e+02	9.965238e+02
					9.965486e+02	9.997707e+02	9.993599e+02	9.996090e+02	9.985717e+02	9.948409e+02	9.956555e+02	9.994910e+02	9.995412e+02
					9.992104e+02	9.996953e+02	9.995841e+02	5.899154e+02	5.707078e+02	5.509699e+02	6.062842e+02	5.909896e+02	5.954114e+02
					5.782348e+02	5.728697e+02	5.972493e+02	3.353332e+02	3.436680e+02	3.446917e+02	5.723216e+02	3.249170e+02	5.550359e+02
					2.925821e+02	3.297479e+02	4.826574e+02	5.825249e+02	5.721346e+02	5.987992e+02	6.794370e+02	6.583402e+02	6.549698e+02
					5.652260e+02	6.919757e+02	6.341445e+02	6.344902e+02	4.356840e+02	5.842330e+02	9.994588e+02	4.526486e+02	4.572688e+02
					4.450751e+02	4.429015e+02	4.400562e+02	4.477997e+02	4.406700e+02	4.343269e+02	4.622776e+02	4.388091e+02	4.357000e+02
					4.489329e+02	4.504089e+02	4.422959e+02	4.410900e+02	3.102534e+02	4.473836e+02	4.331774e+02	4.257815e+02	4.377830e+02
					8.817140e+02	8.845717e+02	9.204639e+02	8.578012e+02	7.888174e+02	8.818363e+02	8.171395e+02	7.917234e+02	5.655732e+02
					3.975989e+02	3.645976e+02	4.098594e+02	8.686889e+02	8.476640e+02	8.258091e+02	8.083069e+02	7.696560e+02	7.070295e+02
					7.509238e+02	7.630353e+02	3.341358e+02	3.351977e+02	2.651308e+02	5.575944e+02	5.123814e+02	5.969024e+02	4.765335e+02
					4.476319e+02	6.767099e+02	6.937358e+02	7.821467e+02	5.190002e+02	7.718053e+02	8.520411e+02	9.115581e+02	8.410601e+02
					4.014080e+02	4.092811e+02	3.964162e+02	3.989859e+02	4.034572e+02	8.315106e+02	8.085533e+02	8.251434e+02	1.002822e+03
					1.003026e+03	1.003975e+03	1.002989e+03	1.001760e+03	9.997956e+02	1.000615e+03	1.002922e+03	9.515789e+02	9.512949e+02
					9.652886e+02	9.644772e+02	9.087387e+02	8.916993e+02	9.324742e+02	9.202614e+02	1.001736e+03	9.985353e+02	9.977801e+02
					9.994069e+02	1.005149e+03	9.283869e+02	9.290584e+02	8.933729e+02	1.000135e+03	9.997127e+02	1.000944e+03	8.858689e+02
					8.995505e+02	8.760230e+02	5.628277e+02	5.477011e+02	6.389511e+02	9.601151e+02	9.829551e+02	9.566156e+02	7.095371e+02
					6.545885e+02	6.521439e+02	5.821188e+02	2.655668e+02	2.719396e+02	2.711479e+02	2.896692e+02	2.803926e+02	2.782116e+02
					4.057383e+02	3.673589e+02	3.890562e+02	3.912052e+02	2.695392e+02	2.644955e+02	2.926114e+02	3.009549e+02	2.460233e+02
					9.581636e+02	9.537727e+02	9.400476e+02	9.716904e+02	7.633233e+02	8.235216e+02	7.618156e+02	8.256586e+02	7.998063e+02
					7.549431e+02	5.850695e+02	3.688265e+02	4.383957e+02	6.227879e+02	8.722577e+02	8.441544e+02	8.446227e+02	8.818374e+02
					9.074717e+02	8.838350e+02	5.478155e+02	5.249090e+02	7.335404e+02	7.087112e+02	7.686412e+02	7.123046e+02	8.495933e+02
					9.001313e+02	7.824509e+02	7.929835e+02	7.122382e+02	9.374586e+02	3.151890e+02	5.744290e+02	3.912083e+02	7.739118e+02
					7.909650e+02	2.991062e+02	2.889449e+02	3.219131e+02	2.840420e+02	3.623687e+02	3.959598e+02	3.946052e+02	2.869711e+02
					2.894298e+02	2.422493e+02	2.454426e+02	2.798446e+02	3.028510e+02	2.742529e+02	3.925279e+02	3.727046e+02	4.319384e+02
					4.424399e+02	4.390598e+02	4.549780e+02	4.282408e+02	2.797522e+02	4.338294e+02	2.820021e+02	4.392847e+02	4.413367e+02
					4.514629e+02	3.126847e+02	2.744965e+02	2.804998e+02	2.642520e+02	2.720102e+02	2.743066e+02	3.058474e+02	4.101690e+02
					3.811988e+02	3.593888e+02	3.612784e+02	3.675514e+02	4.186314e+02	4.125174e+02	4.448548e+02	4.150853e+02	4.127834e+02
					3.862976e+02	9.885477e+02	1.002036e+03	9.992919e+02	1.002805e+03	8.524946e+02	7.965901e+02	7.855812e+02	8.412946e+02
					9.996147e+02	1.000773e+03	9.995704e+02	9.664874e+02	9.987050e+02	9.288199e+02	9.475297e+02	9.862164e+02	9.495059e+02
					9.625249e+02	9.383040e+02	9.903267e+02	9.854310e+02	9.930528e+02	1.001079e+03	9.993785e+02	1.000953e+03	1.002569e+03
					5.473308e+02	7.235137e+02	6.320735e+02	7.707371e+02	8.543790e+02	8.766996e+02	9.252453e+02	9.165323e+02	8.703411e+02
					2.717740e+02	3.517900e+02	5.857449e+02	5.679718e+02	9.582053e+02	9.126348e+02	8.479041e+02	8.579807e+02	1.000351e+03
					9.137401e+02	9.589116e+02	8.831380e+02	8.730242e+02	9.615877e+02	9.418691e+02	9.399373e+02	9.736174e+02	9.827295e+02
					9.883944e+02	9.801159e+02	9.777276e+02	9.951350e+02	9.798950e+02	9.863887e+02	1.003418e+03	1.002168e+03	9.996478e+02
					9.824035e+02	9.651425e+02	9.989114e+02	9.988298e+02	9.750406e+02	9.881729e+02	9.814740e+02	9.235638e+02	8.978098e+02
					9.244440e+02	9.450622e+02	8.241197e+02	7.916734e+02	7.480803e+02	7.875890e+02	8.556005e+02	8.925536e+02	8.956232e+02
					8.653308e+02	9.938012e+02	9.786700e+02	9.841130e+02	9.742106e+02	1.001980e+03	1.000689e+03	8.175445e+02	8.400878e+02
					9.382763e+02	9.740466e+02	9.648735e+02	9.999653e+02	1.001202e+03	9.951333e+02	9.854308e+02	9.401019e+02	9.343295e+02
					9.530891e+02	9.492401e+02	9.313267e+02	9.459095e+02	8.996956e+02	9.455137e+02	9.243285e+02	9.441465e+02	1.000963e+03
					1.001923e+03	1.003050e+03	1.002586e+03	9.981294e+02	9.949927e+02	1.000571e+03	1.000518e+03	1.002436e+03	1.004426e+03
					1.004888e+03	9.886741e+02	9.760170e+02	9.966981e+02	9.852689e+02	9.944164e+02	1.000913e+03	1.002056e+03	9.525144e+02
					8.251945e+02	8.074948e+02	9.265314e+02	6.419809e+02	5.907731e+02	7.181096e+02	6.525114e+02	5.554042e+02	3.469746e+02
					7.412523e+02	6.584448e+02	6.982163e+02	7.459337e+02	5.719483e+02	4.129889e+02	5.167141e+02	2.777486e+02	3.302965e+02
					2.824540e+02	4.091417e+02	2.694350e+02	3.696559e+02	3.535514e+02	3.007688e+02	2.995543e+02	4.465727e+02	2.766096e+02
					5.389159e+02	6.997500e+02	7.853232e+02	7.180704e+02	6.883959e+02	8.184955e+02	6.426969e+02	8.319759e+02	7.710873e+02
					9.176203e+02	9.519463e+02	8.389959e+02	9.007680e+02	8.669862e+02	8.818081e+02	8.814933e+02	8.643557e+02	8.516479e+02
					6.570780e+02	8.205402e+02	8.168357e+02	8.021902e+02	8.268732e+02	7.918857e+02	7.279495e+02	9.433542e+02	9.676183e+02
					8.885370e+02	9.336716e+02	8.401216e+02	8.805975e+02	8.540156e+02	8.876397e+02	9.023898e+02	9.938660e+02	9.992295e+02
					9.964791e+02	9.975223e+02	1.001099e+03	9.960361e+02	1.001272e+03	9.914395e+02	1.001843e+03	1.000355e+03	9.989396e+02
					1.000084e+03	1.001850e+03	1.001052e+03	1.001161e+03	1.000218e+03	1.003716e+03	1.001459e+03	1.000421e+03	1.003127e+03
					1.005137e+03	1.004490e+03	1.003891e+03	1.003309e+03	1.002790e+03	1.003032e+03	1.003355e+03	9.677815e+02	9.950371e+02
					1.003065e+03	1.003070e+03	1.003315e+03	1.003403e+03	1.003012e+03	1.002227e+03	1.003009e+03	1.003508e+03	9.468178e+02
					9.059658e+02	9.099580e+02	9.172680e+02	9.395858e+02	9.490325e+02	9.115841e+02	9.460207e+02	9.694152e+02	9.390081e+02
					9.078750e+02	9.478060e+02	9.345744e+02	9.745400e+02	9.598977e+02	9.261774e+02	9.709032e+02	9.983089e+02	9.577753e+02
					9.662631e+02	1.002397e+03	1.000501e+03	1.001803e+03	1.000864e+03	1.000801e+03	1.000152e+03	9.883118e+02	9.166251e+02
					9.058359e+02	9.231385e+02	9.289132e+02	9.134821e+02	8.305022e+02	8.800355e+02	8.610483e+02	8.300117e+02	8.663745e+02
					8.245100e+02	9.550885e+02	9.245764e+02	9.481330e+02	9.224336e+02	9.453145e+02	9.069894e+02	9.535708e+02	9.374204e+02
					9.381763e+02	9.359376e+02	9.210789e+02	8.861000e+02	8.728866e+02	8.985272e+02	8.484550e+02	9.001111e+02	9.012996e+02
					9.368888e+02	9.203056e+02	9.233382e+02	9.088957e+02	9.217244e+02	7.853125e+02	8.383204e+02	8.120542e+02	7.907152e+02
					6.816691e+02	7.676349e+02	7.398966e+02	8.260224e+02	8.921841e+02	8.427891e+02	8.958646e+02	8.657861e+02	8.512072e+02
					9.051706e+02	9.657427e+02	9.488472e+02	9.679795e+02	9.347505e+02	9.862729e+02	1.002835e+03	1.003218e+03	1.003171e+03
					1.002845e+03	1.003632e+03	1.000670e+03	9.989136e+02	1.002619e+03	1.000981e+03	9.997843e+02	1.000745e+03	9.929094e+02
					9.080885e+02	9.716996e+02	8.397367e+02	8.916356e+02	8.487914e+02	8.623161e+02	8.100636e+02	7.664187e+02	7.121662e+02
					7.391646e+02	7.750427e+02	8.232157e+02	7.495122e+02	8.421865e+02	9.761646e+02	9.598797e+02	9.467509e+02	8.989743e+02
					9.179776e+02	9.837896e+02	9.675092e+02	8.956304e+02	8.720135e+02	8.352474e+02	9.638086e+02	9.164137e+02	9.476259e+02
					9.596274e+02	9.246656e+02	9.382688e+02	9.869693e+02	9.959077e+02	9.986257e+02	9.957199e+02	9.882283e+02	9.919227e+02
					9.967449e+02	9.960099e+02	9.912152e+02	9.645417e+02	9.472105e+02	9.336479e+02	9.568617e+02	9.691137e+02	9.385532e+02
					9.558667e+02	1.000817e+03	1.002690e+03	1.001769e+03	9.739347e+02	9.484988e+02	9.340201e+02	1.001028e+03	1.002873e+03
					9.930846e+02	9.543886e+02	9.992823e+02	9.979706e+02	9.785821e+02	1.002974e+03	1.003370e+03	1.002768e+03	9.999393e+02
					1.001095e+03	1.003245e+03	1.003204e+03	1.002511e+03	9.768639e+02	9.882717e+02	9.784912e+02	9.827212e+02	9.922573e+02
					9.293784e+02	9.817661e+02	9.915482e+02	9.854971e+02	9.643429e+02	9.888719e+02	9.926213e+02	9.410434e+02	9.510329e+02
					8.980141e+02	9.694091e+02	9.817774e+02	9.771417e+02	9.161036e+02	9.468050e+02	8.573451e+02	9.510490e+02	9.937819e+02