<?xml version="1.0"?>

<!--
CSMP_Simulation
-->

<VTKFile type="UnstructuredGrid" version="1.0" byte_order="LittleEndian">
	<UnstructuredGrid>
		<Piece NumberOfPoints="2922" NumberOfCells="5619">
			<Points>
				<DataArray type="Float64" Name="Position" NumberOfComponents="3" format="ascii">
					1.062348e+04	-6.219427e+03	0.000000e+00	1.328123e+04	-3.388001e+03	0.000000e+00	6.533000e+03	-2.871000e+03	0.000000e+00	8.993999e+03	3.450022e+02	0.000000e+00
					6.434000e+03	-6.251000e+03	0.000000e+00	6.415000e+03	-1.312000e+03	0.000000e+00	8.891000e+03	-1.610000e+02	0.000000e+00	1.593372e+04	-6.223812e+03	0.000000e+00
					1.243124e+04	-5.182061e+03	0.000000e+00	1.180818e+04	-6.661451e+03	0.000000e+00	1.199040e+04	-6.569837e+03	0.000000e+00	1.186573e+04	-6.450233e+03	0.000000e+00
					1.224666e+04	-6.222517e+03	0.000000e+00	1.208180e+04	-6.360720e+03	0.000000e+00	1.135568e+04	-6.216921e+03	0.000000e+00	1.177466e+04	-5.800292e+03	0.000000e+00
					1.484109e+03	2.369937e+02	0.000000e+00	1.048845e+04	-4.576829e+03	0.000000e+00	5.088007e+03	2.164612e+02	0.000000e+00	1.616065e+04	6.885872e+02	0.000000e+00
					5.856588e+03	2.844799e+02	0.000000e+00	5.964146e+03	2.322470e+02	0.000000e+00	1.285384e+04	-8.473227e+03	0.000000e+00	6.554646e+03	2.976259e+02	0.000000e+00
					6.220259e+03	3.810972e+02	0.000000e+00	2.455667e+03	2.604214e+02	0.000000e+00	1.185441e+04	-8.594387e+03	0.000000e+00	8.953729e+02	2.424411e+02	0.000000e+00
					1.642061e+04	5.389531e+02	0.000000e+00	9.022812e+03	5.486281e+02	0.000000e+00	1.072547e+04	-4.265213e+03	0.000000e+00	1.596156e+04	-4.568462e+03	0.000000e+00
					1.049681e+04	-6.339904e+03	0.000000e+00	1.229884e+04	9.679014e+02	0.000000e+00	1.346081e+04	9.303555e+02	0.000000e+00	7.674576e+03	2.576962e+02	0.000000e+00
					8.121128e+03	2.577928e+02	0.000000e+00	8.390419e+03	2.530714e+02	0.000000e+00	1.759058e+04	3.107264e+02	0.000000e+00	1.283469e+04	-3.190105e+03	0.000000e+00
					1.310544e+04	-3.163050e+03	0.000000e+00	6.218396e+03	2.847346e+02	0.000000e+00	1.964998e+04	3.306567e+02	0.000000e+00	1.089832e+04	6.517557e+02	0.000000e+00
					9.482042e+03	5.002750e+02	0.000000e+00	1.461891e+04	-3.601876e+03	0.000000e+00	1.694475e+04	2.822433e+02	0.000000e+00	1.223129e+04	-8.439639e+03	0.000000e+00
					7.092101e+03	3.133630e+02	0.000000e+00	7.447673e+03	2.954910e+02	0.000000e+00	5.479449e+03	3.927924e+02	0.000000e+00	1.430834e+04	-8.440884e+03	0.000000e+00
					1.346187e+04	-3.101654e+03	0.000000e+00	1.466219e+04	5.912805e+02	0.000000e+00	1.431424e+04	6.995984e+02	0.000000e+00	1.198158e+04	-3.600157e+03	0.000000e+00
					1.519729e+04	6.008027e+02	0.000000e+00	1.732254e+04	2.914492e+02	0.000000e+00	1.847268e+04	5.552377e+02	0.000000e+00	1.373014e+04	-3.092539e+03	0.000000e+00
					1.598609e+04	-4.803680e+03	0.000000e+00	1.811668e+03	2.957238e+02	0.000000e+00	2.068111e+03	3.301681e+02	0.000000e+00	3.593477e+02	6.241832e-01	0.000000e+00
					1.315684e+04	9.290093e+02	0.000000e+00	9.757773e+03	6.136685e+02	0.000000e+00	1.013994e+04	6.394650e+02	0.000000e+00	9.949611e+03	7.276424e+02	0.000000e+00
					1.479179e+04	-3.977888e+03	0.000000e+00	1.474764e+04	-3.691732e+03	0.000000e+00	1.224233e+04	-3.775151e+03	0.000000e+00	1.235721e+04	-3.992361e+03	0.000000e+00
					1.239488e+04	-3.732875e+03	0.000000e+00	1.247959e+04	-3.889221e+03	0.000000e+00	1.489970e+04	-6.402044e+03	0.000000e+00	1.471371e+04	-6.063480e+03	0.000000e+00
					1.503558e+04	-6.243497e+03	0.000000e+00	1.463383e+04	-6.231790e+03	0.000000e+00	1.359516e+04	-6.370837e+03	0.000000e+00	1.336635e+04	-6.229341e+03	0.000000e+00
					1.486979e+04	-7.470250e+03	0.000000e+00	1.455711e+04	-7.489929e+03	0.000000e+00	1.120299e+04	-4.942350e+03	0.000000e+00	1.218357e+04	-7.531530e+03	0.000000e+00
					1.251446e+04	-7.480192e+03	0.000000e+00	1.240108e+04	-7.647510e+03	0.000000e+00	1.239322e+04	-7.293615e+03	0.000000e+00	1.368325e+04	-7.242141e+03	0.000000e+00
					1.217897e+04	-5.028812e+03	0.000000e+00	1.378964e+04	8.854108e+02	0.000000e+00	1.351945e+04	-3.856343e+03	0.000000e+00	1.333151e+04	-3.674419e+03	0.000000e+00
					1.350782e+04	-3.520236e+03	0.000000e+00	1.479244e+04	-4.909493e+03	0.000000e+00	1.380050e+04	-4.989557e+03	0.000000e+00	3.084262e+03	3.746820e+02	0.000000e+00
					3.006144e+03	2.572346e+02	0.000000e+00	1.252005e+03	2.691829e+02	0.000000e+00	1.642126e+03	2.829086e+02	0.000000e+00	8.235090e+03	4.169793e+02	0.000000e+00
					1.537108e+04	-5.728762e+03	0.000000e+00	1.550100e+04	-5.598568e+03	0.000000e+00	1.543359e+04	-5.440257e+03	0.000000e+00	1.516251e+04	-4.367050e+03	0.000000e+00
					1.542543e+04	-4.626431e+03	0.000000e+00	1.547978e+04	-4.435709e+03	0.000000e+00	1.421355e+04	-5.774419e+03	0.000000e+00	1.398427e+04	-5.607986e+03	0.000000e+00
					1.433859e+04	-5.644592e+03	0.000000e+00	1.422646e+04	-5.431404e+03	0.000000e+00	1.278519e+04	-5.034132e+03	0.000000e+00	1.297347e+04	-4.888217e+03	0.000000e+00
					1.308886e+04	-5.058455e+03	0.000000e+00	1.295570e+04	-5.179625e+03	0.000000e+00	1.371210e+04	-5.548806e+03	0.000000e+00	1.306586e+04	-5.417419e+03	0.000000e+00
					1.398961e+04	-5.001093e+03	0.000000e+00	1.423737e+04	-5.238687e+03	0.000000e+00	1.553662e+04	-5.035070e+03	0.000000e+00	1.541510e+04	-5.176839e+03	0.000000e+00
					1.433199e+04	-4.490070e+03	0.000000e+00	1.772795e+04	4.701005e+02	0.000000e+00	1.301714e+04	-3.340203e+03	0.000000e+00	1.291928e+04	-6.673458e+03	0.000000e+00
					1.305404e+04	-6.847013e+03	0.000000e+00	1.275393e+04	-6.763001e+03	0.000000e+00	1.299225e+04	-6.992535e+03	0.000000e+00	1.111766e+04	-6.671729e+03	0.000000e+00
					1.100675e+04	-6.816450e+03	0.000000e+00	1.117046e+04	-6.969377e+03	0.000000e+00	1.205000e+04	-8.078535e+03	0.000000e+00	1.184148e+04	-7.859306e+03	0.000000e+00
					1.196430e+04	-8.231484e+03	0.000000e+00	1.298170e+04	-7.885249e+03	0.000000e+00	1.295062e+04	-8.221395e+03	0.000000e+00	1.309178e+04	-8.017537e+03	0.000000e+00
					1.120470e+04	-5.453850e+03	0.000000e+00	1.115255e+04	-5.738876e+03	0.000000e+00	1.126426e+04	-5.604117e+03	0.000000e+00	1.184009e+04	-5.022972e+03	0.000000e+00
					1.172669e+04	-4.862486e+03	0.000000e+00	1.153323e+04	-4.959783e+03	0.000000e+00	1.175756e+04	-5.171477e+03	0.000000e+00	1.534244e+04	-6.934844e+03	0.000000e+00
					1.455437e+04	-8.098472e+03	0.000000e+00	1.476956e+04	-7.877258e+03	0.000000e+00	1.464624e+04	-8.340289e+03	0.000000e+00	1.404268e+04	-7.444684e+03	0.000000e+00
					1.421918e+04	-7.630822e+03	0.000000e+00	1.428388e+04	-7.472196e+03	0.000000e+00	1.526650e+04	-7.239097e+03	0.000000e+00	1.513630e+04	-7.368500e+03	0.000000e+00
					1.581589e+04	-5.652546e+03	0.000000e+00	1.296440e+04	-6.343040e+03	0.000000e+00	1.295470e+04	-6.059130e+03	0.000000e+00	1.303797e+04	-6.200013e+03	0.000000e+00
					1.273442e+04	-6.210589e+03	0.000000e+00	1.360396e+04	-6.962240e+03	0.000000e+00	1.362392e+04	-6.655270e+03	0.000000e+00	1.339020e+04	-6.812359e+03	0.000000e+00
					6.442692e+03	4.405175e+02	0.000000e+00	3.840145e+03	2.404374e+02	0.000000e+00	3.475756e+03	2.459832e+02	0.000000e+00	3.582548e+03	3.131050e+02	0.000000e+00
					1.179383e+04	-4.550717e+03	0.000000e+00	1.173986e+04	-5.484162e+03	0.000000e+00	1.062189e+04	-5.748233e+03	0.000000e+00	1.180024e+04	-3.998124e+03	0.000000e+00
					1.173389e+04	-3.844468e+03	0.000000e+00	1.197836e+04	-3.861204e+03	0.000000e+00	1.188099e+04	-3.736811e+03	0.000000e+00	1.137465e+04	-4.416604e+03	0.000000e+00
					1.124799e+04	-4.291994e+03	0.000000e+00	1.108948e+04	-4.439061e+03	0.000000e+00	1.120866e+04	-4.578218e+03	0.000000e+00	1.076080e+04	-6.185724e+03	0.000000e+00
					1.052158e+04	-6.171076e+03	0.000000e+00	1.061654e+04	-6.082875e+03	0.000000e+00	1.068627e+04	-6.344822e+03	0.000000e+00	1.547934e+04	-6.007495e+03	0.000000e+00
					1.239362e+04	-8.015408e+03	0.000000e+00	1.231714e+04	-8.236339e+03	0.000000e+00	1.259828e+04	-8.069267e+03	0.000000e+00	1.701531e+04	4.509240e+02	0.000000e+00
					1.277290e+04	-3.855596e+03	0.000000e+00	1.248342e+04	-4.291681e+03	0.000000e+00	1.951687e+04	4.566190e+02	0.000000e+00	1.409639e+04	-3.762137e+03	0.000000e+00
					1.395297e+04	-3.853813e+03	0.000000e+00	1.426096e+04	-3.882789e+03	0.000000e+00	1.412655e+04	-4.015160e+03	0.000000e+00	1.454529e+04	-4.454906e+03	0.000000e+00
					1.477335e+04	-4.577894e+03	0.000000e+00	1.473337e+04	-4.284850e+03	0.000000e+00	1.486818e+04	-4.392328e+03	0.000000e+00	1.182077e+04	-6.079763e+03	0.000000e+00
					1.161805e+04	-6.234353e+03	0.000000e+00	1.190807e+04	-6.249025e+03	0.000000e+00	1.174207e+04	-6.340720e+03	0.000000e+00	1.216930e+04	-5.632604e+03	0.000000e+00
					1.242431e+04	-5.486649e+03	0.000000e+00	1.241345e+04	-5.774949e+03	0.000000e+00	1.249642e+04	-5.631837e+03	0.000000e+00	1.225177e+04	-5.774741e+03	0.000000e+00
					1.257980e+04	-5.777980e+03	0.000000e+00	1.225809e+04	-5.482228e+03	0.000000e+00	1.256570e+04	-5.502870e+03	0.000000e+00	1.238428e+04	-6.062964e+03	0.000000e+00
					1.282796e+04	-5.599574e+03	0.000000e+00	1.196367e+04	-6.067125e+03	0.000000e+00	1.167268e+04	-6.097839e+03	0.000000e+00	1.277630e+04	-6.604007e+03	0.000000e+00
					1.252397e+04	-6.308287e+03	0.000000e+00	1.280518e+04	-6.343281e+03	0.000000e+00	1.265315e+04	-6.346342e+03	0.000000e+00	1.271475e+04	-6.477527e+03	0.000000e+00
					1.263261e+04	-6.625855e+03	0.000000e+00	1.667927e+04	4.741056e+02	0.000000e+00	1.612116e+04	5.619883e+02	0.000000e+00	1.487289e+04	5.672211e+02	0.000000e+00
					1.548362e+04	5.952377e+02	0.000000e+00	1.585212e+04	5.965489e+02	0.000000e+00	1.757404e+04	5.394732e+02	0.000000e+00	1.743589e+04	4.800519e+02	0.000000e+00
					1.795083e+04	4.435474e+02	0.000000e+00	1.049310e+04	6.378382e+02	0.000000e+00	9.219915e+03	4.816059e+02	0.000000e+00	1.511397e+04	-4.544577e+03	0.000000e+00
					1.494532e+04	-4.564542e+03	0.000000e+00	1.454020e+04	-4.749504e+03	0.000000e+00	1.486489e+04	-4.724778e+03	0.000000e+00	1.460243e+04	-4.599803e+03	0.000000e+00
					1.446230e+04	-4.653005e+03	0.000000e+00	1.489979e+04	-3.662624e+03	0.000000e+00	1.534625e+04	-4.286436e+03	0.000000e+00	1.518403e+04	-4.162332e+03	0.000000e+00
[...]
			<PointData Scalars="bulk fluid density">
				<DataArray type="Float64" Name="bulk fluid density" NumberOfComponents="1" format="ascii">
					1.608942e+02	1.162282e+02	8.994585e+02	9.861284e+02	5.602505e+02	9.663867e+02	7.889994e+02	1.593966e+02
					3.280555e+02	4.098047e+02	4.059597e+02	4.007289e+02	3.907528e+02	3.968930e+02	3.901925e+02	3.655820e+02	9.999960e+02
					1.961098e+02	9.626574e+02	9.993909e+02	9.045543e+02	8.751137e+02	3.053147e+02	9.320954e+02	9.711721e+02	9.998697e+02
					2.776035e+02	9.996227e+02	9.994904e+02	9.978157e+02	2.844873e+02	1.976902e+02	1.543814e+02	9.998734e+02	9.998107e+02
					9.824343e+02	9.771756e+02	9.886009e+02	1.000493e+03	1.578410e+02	1.036911e+02	9.365895e+02	1.000037e+03	9.991085e+02
					9.989818e+02	1.066999e+02	9.990600e+02	4.230795e+02	9.885092e+02	9.869198e+02	9.947939e+02	4.211001e+02	1.337617e+02
					9.996662e+02	9.998806e+02	1.011032e+02	9.989378e+02	1.000200e+03	9.999240e+02	2.041003e+02	1.534771e+02	9.999422e+02
					9.998638e+02	9.969764e+02	1.000064e+03	9.995003e+02	9.998617e+02	9.995978e+02	2.468745e+02	1.102939e+02	2.292561e+02
					2.571012e+02	2.297034e+02	2.506640e+02	3.992447e+02	3.833932e+02	3.922288e+02	3.916730e+02	3.977084e+02	3.913537e+02
					4.426681e+02	4.434241e+02	3.130212e+02	4.446727e+02	4.427742e+02	4.491380e+02	4.355920e+02	4.337874e+02	3.187424e+02
					9.996924e+02	2.495788e+02	2.385955e+02	2.281089e+02	3.125128e+02	3.170398e+02	9.993413e+02	9.997269e+02	9.997602e+02
					9.998831e+02	9.911815e+02	3.622126e+02	3.541214e+02	3.444598e+02	2.691744e+02	2.856612e+02	1.213078e+02	3.648561e+02
					3.544652e+02	3.568383e+02	3.437285e+02	3.193298e+02	3.107015e+02	3.209065e+02	3.281277e+02	3.507714e+02	3.425128e+02
					3.177811e+02	3.320755e+02	3.196812e+02	3.285510e+02	2.874868e+02	9.998278e+02	9.877682e+01	4.106068e+02	4.178058e+02
					4.143260e+02	4.236890e+02	4.099733e+02	4.130891e+02	4.206483e+02	4.561775e+02	4.437863e+02	3.266269e+02	4.579548e+02
					4.677121e+02	4.627653e+02	3.438655e+02	3.614354e+02	3.531003e+02	3.182263e+02	3.085750e+02	3.142918e+02	3.270972e+02
					4.213168e+02	4.598548e+02	4.356190e+02	3.068699e+02	4.416502e+02	4.487654e+02	4.427259e+02	4.312553e+02	4.376300e+02
					3.274724e+02	3.963575e+02	3.826404e+02	3.899455e+02	3.903711e+02	4.225786e+02	4.099831e+02	4.164457e+02	9.857323e+02
					9.999859e+02	9.994720e+02	9.994957e+02	2.900648e+02	3.460241e+02	1.439728e+02	2.450806e+02	1.138566e+02	2.309982e+02
					1.123482e+02	2.746350e+02	1.207816e+02	1.227595e+02	2.845674e+02	3.727080e+02	1.471704e+02	1.565160e+02	1.734349e+02
					3.798600e+02	4.617988e+02	4.384798e+02	4.642055e+02	9.993533e+02	2.491055e+02	2.750017e+02	9.996645e+02	2.334089e+02
					2.491179e+02	2.484609e+02	2.591746e+02	2.854574e+02	2.928109e+02	2.753933e+02	2.817618e+02	3.834770e+02	3.910947e+02
					3.918408e+02	3.958986e+02	3.553408e+02	3.465061e+02	3.642995e+02	3.554396e+02	3.642176e+02	3.645539e+02	3.461596e+02
					3.475575e+02	3.826560e+02	3.535615e+02	3.827155e+02	3.845264e+02	4.076355e+02	3.946949e+02	3.963287e+02	3.964243e+02
					4.021650e+02	4.085215e+02	9.993093e+02	9.998421e+02	9.991134e+02	9.994567e+02	9.997913e+02	9.995283e+02	9.996438e+02
					1.000026e+03	9.979688e+02	9.981484e+02	2.905391e+02	2.920397e+02	3.029471e+02	3.015447e+02	2.940724e+02	2.971890e+02
					1.682949e+02	1.199829e+02	1.165165e+02	1.127437e+02	1.165928e+02	1.993076e+02	1.247419e+02	2.700524e+02	2.459565e+02
					2.715733e+02	2.281669e+02	1.150434e+02	2.767597e+02	2.666618e+02	2.696369e+02	2.582267e+02	2.371247e+02	2.610379e+02
					2.430649e+02	2.556505e+02	1.062578e+02	2.295551e+02	2.787160e+02	2.624643e+02	2.586577e+02	2.781837e+02	2.710492e+02
					2.819535e+02	9.993889e+02	9.997468e+02	9.997974e+02	2.936934e+02	3.027583e+02	3.106320e+02	1.069748e+02	2.581671e+02
					2.670615e+02	2.576314e+02	2.397778e+02	1.058628e+02	1.058572e+02	9.587626e+01	2.363524e+02	2.172883e+02	3.150644e+02
					3.060589e+02	4.639260e+02	4.566523e+02	4.644782e+02	4.602756e+02	4.588536e+02	4.024515e+02	2.991012e+02	4.149706e+02
					4.118131e+02	3.592069e+02	3.725455e+02	3.821403e+02	3.710372e+02	3.980077e+02	4.054987e+02	3.967999e+02	3.809447e+02
					3.744357e+02	3.730736e+02	3.636814e+02	3.839690e+02	3.986350e+02	4.072993e+02	3.990564e+02	1.685069e+02	1.497981e+02
					1.419569e+02	1.222157e+02	3.100899e+02	1.266146e+02	3.047379e+02	3.104639e+02	1.352622e+02	1.473268e+02	1.375271e+02
					1.179201e+02	1.359259e+02	2.750895e+02	2.821954e+02	3.066430e+02	1.228511e+02	2.641270e+02	2.774309e+02	2.558327e+02
					1.078525e+02	1.256027e+02	1.568250e+02	2.434544e+02	2.733048e+02	1.261256e+02	2.558676e+02	2.705914e+02	1.488205e+02
					1.188069e+02	1.174673e+02	3.811422e+02	1.462176e+02	1.524361e+02	3.558278e+02	3.268032e+02	1.400792e+02	2.729092e+02
					2.833707e+02	2.821461e+02	2.732564e+02	2.738362e+02	2.549335e+02	2.651971e+02	2.632707e+02	9.992868e+02	9.995983e+02
					9.997925e+02	9.995282e+02	9.916213e+02	8.875254e+02	9.690648e+02	9.397018e+02	9.181294e+02	9.363236e+02	4.614443e+02
					4.211310e+02	3.826582e+02	3.798567e+02	3.587585e+02	3.687527e+02	3.863465e+02	3.717818e+02	3.636102e+02	3.980135e+02
					3.975103e+02	4.034283e+02	4.051168e+02	4.086613e+02	3.825080e+02	3.830075e+02	3.623483e+02	3.628099e+02	3.727542e+02
					3.623843e+02	3.951999e+02	3.981553e+02	4.104388e+02	4.109943e+02	3.984112e+02	4.030864e+02	4.046561e+02	4.109644e+02
					1.355069e+02	1.803242e+02	1.564050e+02	1.668731e+02	3.947019e+02	3.536474e+02	3.845598e+02	1.588462e+02	1.313854e+02
					1.346842e+02	1.353333e+02	1.505526e+02	1.368876e+02	3.434704e+02	1.459649e+02	1.518448e+02	3.615041e+02	3.750210e+02
					3.695618e+02	1.589684e+02	4.404218e+02	4.476163e+02	4.350993e+02	4.487276e+02	4.481278e+02	4.365066e+02	4.385101e+02
					4.489517e+02	4.553938e+02	4.606648e+02	4.470997e+02	4.530463e+02	4.403420e+02	4.584242e+02	4.560803e+02	3.938068e+02
					4.328954e+02	4.365357e+02	4.239063e+02	4.376710e+02	4.396509e+02	4.287688e+02	4.285263e+02	4.224253e+02	4.162493e+02
					4.231730e+02	4.181766e+02	4.109612e+02	4.100310e+02	2.887935e+02	3.891090e+02	1.779520e+02	4.121263e+02	4.072640e+02
					4.015832e+02	4.035585e+02	4.089250e+02	3.950427e+02	3.822595e+02	4.127920e+02	4.204910e+02	2.707418e+02	4.289413e+02
					4.366535e+02	4.239843e+02	4.273340e+02	4.218318e+02	4.168773e+02	4.196665e+02	4.138424e+02	3.985932e+02	4.108135e+02
					4.068339e+02	4.159834e+02	4.216570e+02	4.274588e+02	4.137943e+02	4.364162e+02	4.332521e+02	4.248223e+02	3.255248e+02
					3.265210e+02	3.376905e+02	3.435187e+02	3.339056e+02	3.835125e+02	3.858938e+02	3.735474e+02	3.738686e+02	3.640786e+02
					3.787541e+02	3.561730e+02	3.492545e+02	3.257665e+02	2.892775e+02	2.873935e+02	3.054952e+02	2.946562e+02	2.980967e+02
					2.885102e+02	3.063700e+02	3.028096e+02	3.454115e+02	3.333136e+02	3.241182e+02	3.348162e+02	3.442041e+02	3.258265e+02
					3.219563e+02	3.649804e+02	3.572894e+02	3.623220e+02	3.703456e+02	3.771017e+02	3.717027e+02	3.431362e+02	3.359609e+02
					3.608791e+02	3.440347e+02	3.286352e+02	3.355178e+02	3.459253e+02	3.274103e+02	3.276586e+02	3.369041e+02	3.460001e+02
					3.364895e+02	3.279164e+02	3.624724e+02	3.721922e+02	3.662935e+02	3.877843e+02	3.733725e+02	3.810301e+02	3.694676e+02
					3.858228e+02	3.781685e+02	3.820187e+02	2.925981e+02	3.090939e+02	3.005734e+02	2.901893e+02	3.095060e+02	2.996268e+02
					3.100134e+02	2.919823e+02	1.573380e+02	4.086954e+02	3.834424e+02	1.387994e+02	4.030969e+02	3.857912e+02	3.957862e+02
					2.737537e+02	4.126419e+02	4.238082e+02	4.298015e+02	4.359851e+02	4.241070e+02	4.356357e+02	4.471126e+02	4.354319e+02
					4.477076e+02	4.226262e+02	4.167477e+02	4.237709e+02	4.171780e+02	4.115301e+02	4.105122e+02	4.234285e+02	4.473916e+02
					4.596075e+02	4.542471e+02	4.480507e+02	4.556175e+02	4.576978e+02	4.526378e+02	4.294290e+02	4.228939e+02	4.271199e+02
					4.307949e+02	4.365555e+02	4.652898e+02	4.613338e+02	4.624558e+02	4.622543e+02	4.647903e+02	3.040560e+02	4.516857e+02
					4.644813e+02	3.241504e+02	4.644928e+02	4.675858e+02	4.643838e+02	4.671034e+02	4.665913e+02	4.531614e+02	4.478019e+02
					4.614265e+02	4.592171e+02	4.463470e+02	4.578509e+02	4.492123e+02	4.463719e+02	4.524734e+02	4.254867e+02	4.355206e+02
					4.320859e+02	4.284831e+02	4.242714e+02	4.341182e+02	4.364586e+02	4.119052e+02	3.979235e+02	4.037889e+02	4.148613e+02
					3.981146e+02	4.384390e+02	3.471025e+02	4.456245e+02	4.473103e+02	4.448827e+02	3.489324e+02	3.523012e+02	3.156800e+02
					4.176233e+02	4.187939e+02	4.114551e+02	4.238474e+02	4.277140e+02	1.729878e+02	4.138532e+02	3.968140e+02	4.361813e+02
					4.194976e+02	4.157658e+02	4.030313e+02	4.567350e+02	4.440577e+02	4.554089e+02	4.504186e+02	4.562093e+02	4.434027e+02
					4.308576e+02	4.359619e+02	4.245265e+02	4.276286e+02	4.347702e+02	4.227567e+02	4.311632e+02	4.340210e+02	1.371540e+02
					1.066410e+02	2.143854e+02	2.379560e+02	1.080654e+02	9.996939e+02	1.080367e+02	9.994582e+02	9.997308e+02	9.995618e+02
					9.995583e+02	9.994638e+02	1.003345e+03	1.001881e+03	1.002273e+03	1.002605e+03	1.003385e+03	9.988801e+02	1.002661e+03
					1.003253e+03	2.116409e+02	2.099778e+02	2.622336e+02	2.645756e+02	9.996211e+02	1.002808e+03	9.990532e+02	1.000899e+03
					9.998804e+02	2.551021e+02	2.714127e+02	2.655927e+02	2.354701e+02	2.112938e+02	2.319205e+02	1.064386e+02	9.664995e+01
					1.033459e+02	1.079093e+02	2.912939e+02	2.733688e+02	2.805017e+02	2.834595e+02	2.750976e+02	2.955937e+02	1.436272e+02
					1.592630e+02	1.294013e+02	3.434859e+02	3.372757e+02	3.107155e+02	3.251464e+02	1.309770e+02	3.442946e+02	3.290700e+02
					3.080780e+02	3.000302e+02	3.116118e+02	2.941114e+02	2.703794e+02	2.868672e+02	2.765348e+02	2.816011e+02	2.737758e+02
					2.939449e+02	2.751732e+02	2.876419e+02	2.762452e+02	2.565204e+02	2.640636e+02	2.726779e+02	2.664434e+02	2.853575e+02
					3.067818e+02	2.887959e+02	2.931457e+02	3.111607e+02	2.962317e+02	3.396802e+02	3.248105e+02	3.832202e+02	3.630969e+02
					3.436895e+02	3.274048e+02	2.876699e+02	3.050870e+02	2.905392e+02	2.955923e+02	3.080494e+02	3.447580e+02	3.531649e+02
					3.511972e+02	3.444981e+02	3.631544e+02	3.841433e+02	3.361610e+02	3.441763e+02	3.253868e+02	3.355878e+02	3.238166e+02
					3.284285e+02	3.439399e+02	3.264927e+02	3.450191e+02	3.362628e+02	3.284406e+02	3.325446e+02	3.052726e+02	3.140367e+02
					2.983809e+02	3.049731e+02	2.910701e+02	3.090053e+02	3.137845e+02	3.192392e+02	3.117449e+02	3.374044e+02	3.470830e+02
					3.455156e+02	3.447199e+02	3.506258e+02	3.670726e+02	3.638111e+02	3.836230e+02	1.261298e+02	1.511028e+02	3.001974e+02
					2.784596e+02	2.964094e+02	3.108506e+02	3.507921e+02	3.652226e+02	3.518151e+02	3.487509e+02	3.603967e+02	3.295005e+02
					3.124209e+02	3.440804e+02	3.238127e+02	3.491400e+02	3.328192e+02	3.373190e+02	3.391156e+02	9.989803e+02	9.953118e+02
					1.000065e+03	9.947841e+02	9.938277e+02	9.937410e+02	9.994061e+02	9.993592e+02	9.996065e+02	9.978420e+02	9.902951e+02
					9.911979e+02	9.994863e+02	9.995236e+02	9.989428e+02	9.996559e+02	9.995253e+02	2.893418e+02	2.959498e+02	3.086241e+02
					3.117115e+02	3.290417e+02	3.111937e+02	3.287639e+02	3.182092e+02	3.202540e+02	3.370176e+02	3.443177e+02	3.295557e+02
					3.367537e+02	3.314455e+02	3.075297e+02	3.283305e+02	3.100780e+02	3.206718e+02	2.329239e+02	2.309154e+02	2.092453e+02
					9.917101e+01	2.533012e+02	2.455118e+02	2.327618e+02	2.467791e+02	2.527153e+02	2.560469e+02	2.621258e+02	2.689434e+02
					9.994574e+02	4.526515e+02	4.573662e+02	4.450683e+02	4.428726e+02	4.400460e+02	4.478238e+02	4.413535e+02	4.383600e+02
					4.667151e+02	4.388433e+02	4.357283e+02	4.490463e+02	4.504527e+02	4.422625e+02	4.413655e+02	2.938960e+02	4.480884e+02
					4.333976e+02	4.256954e+02	4.379648e+02	4.304538e+02	4.479382e+02	3.908541e+02	3.748753e+02	3.837491e+02	3.681397e+02
					3.916946e+02	3.981381e+02	3.904674e+02	1.640774e+02	3.838147e+02	3.991911e+02	3.914521e+02	4.001571e+02	3.831061e+02
					3.892716e+02	3.614333e+02	4.124170e+02	4.503292e+02	2.367116e+02	2.598711e+02	2.520558e+02	9.998000e+02	4.046334e+02
					4.015695e+02	4.094652e+02	3.966435e+02	3.992094e+02	4.036229e+02	6.008112e+02	6.316379e+02	6.173338e+02	9.926441e+02
					9.874064e+02	9.902789e+02	9.969873e+02	9.631244e+02	9.556098e+02	9.672566e+02	9.763858e+02	9.395058e+02	9.397093e+02
					9.474824e+02	9.465625e+02	8.151941e+02	7.863027e+02	8.351285e+02	8.136730e+02	9.844575e+02	9.649011e+02	9.548329e+02
					9.994231e+02	9.783731e+02	8.115986e+02	8.130388e+02	7.420599e+02	1.000130e+03	9.997102e+02	1.000931e+03	8.718932e+02
					8.852339e+02	8.347139e+02	2.659158e+02	1.039798e+02	2.501641e+02	9.046473e+02	9.563515e+02	8.898372e+02	5.780089e+02
					5.362884e+02	5.447163e+02	4.960278e+02	2.660412e+02	2.694687e+02	2.688244e+02	2.911867e+02	2.728935e+02	2.705505e+02
					4.060418e+02	3.721697e+02	3.929012e+02	3.916364e+02	2.675249e+02	2.625712e+02	2.964171e+02	2.924988e+02	1.758359e+02
					8.249180e+02	8.242463e+02	8.006576e+02	8.493786e+02	7.896720e+02	8.020006e+02	7.722272e+02	8.236088e+02	6.842288e+02
					5.131930e+02	2.930451e+02	1.763242e+02	2.832937e+02	2.766812e+02	8.357691e+02	8.024129e+02	8.026708e+02	8.797843e+02
					9.078304e+02	8.729747e+02	4.952806e+02	1.569680e+02	4.253930e+02	3.297004e+02	7.045251e+02	6.251894e+02	8.534133e+02
					8.780992e+02	7.059478e+02	7.350149e+02	6.674434e+02	8.200524e+02	2.877693e+02	4.973627e+02	3.603397e+02	6.853769e+02
					7.051993e+02	2.947096e+02	2.797925e+02	3.024148e+02	2.734207e+02	3.567830e+02	4.032276e+02	3.979869e+02	2.884159e+02
					2.959609e+02	2.689388e+02	2.882120e+02	2.779988e+02	3.029610e+02	2.723316e+02	3.928591e+02	3.896863e+02	4.320839e+02
					4.426645e+02	4.390617e+02	4.551453e+02	4.281760e+02	2.724982e+02	4.510832e+02	2.723588e+02	4.413193e+02	4.413156e+02
					4.514795e+02	3.178001e+02	2.746467e+02	2.787392e+02	2.656392e+02	2.745016e+02	2.959364e+02	3.432304e+02	4.008702e+02
					3.579222e+02	3.350455e+02	3.661068e+02	3.550494e+02	4.065201e+02	3.918177e+02	3.974405e+02	3.699653e+02	3.725594e+02
					3.374169e+02	9.772265e+02	1.000991e+03	9.959768e+02	1.002440e+03	8.660566e+02	7.973390e+02	7.138587e+02	8.362971e+02
					9.996123e+02	1.000761e+03	9.995675e+02	9.585938e+02	9.976572e+02	9.140992e+02	9.443517e+02	9.579768e+02	8.833478e+02
					8.985897e+02	8.483542e+02	9.197525e+02	8.992547e+02	9.167481e+02	9.992237e+02	9.950683e+02	1.000153e+03	1.001347e+03
					2.591726e+02	2.423817e+02	2.008775e+02	3.125506e+02	6.125621e+02	6.693271e+02	8.142450e+02	7.912506e+02	6.368037e+02
					3.185947e+02	3.367653e+02	3.201443e+02	3.002083e+02	9.640908e+02	9.082012e+02	7.527958e+02	8.567317e+02	1.000187e+03
					7.981914e+02	9.520325e+02	7.658283e+02	7.911987e+02	8.965456e+02	8.795014e+02	8.922324e+02	8.842302e+02	8.958442e+02
					9.185389e+02	9.079923e+02	9.566006e+02	9.700478e+02	9.589199e+02	9.542857e+02	9.853254e+02	9.591665e+02	9.407054e+02
					9.373323e+02	8.901177e+02	9.704328e+02	9.715089e+02	9.027481e+02	9.225000e+02	8.979434e+02	8.051786e+02	7.795477e+02
					8.092192e+02	8.309691e+02	7.251822e+02	7.045534e+02	6.571425e+02	6.875333e+02	7.840680e+02	8.093787e+02	8.235476e+02
					8.090437e+02	9.165715e+02	8.814342e+02	8.924827e+02	8.719051e+02	1.001887e+03	1.000675e+03	7.069257e+02	7.255808e+02
					9.351102e+02	9.159133e+02	9.197469e+02	9.998882e+02	1.001043e+03	9.937226e+02	9.850743e+02	9.251742e+02	9.025986e+02
					9.333578e+02	9.189095e+02	8.346384e+02	8.240323e+02	8.307291e+02	9.381913e+02	9.182405e+02	9.349452e+02	1.000093e+03
					9.981270e+02	9.954265e+02	1.001473e+03	9.886634e+02	9.716657e+02	9.812497e+02	9.996964e+02	9.988650e+02	9.797551e+02
					9.893959e+02	9.292282e+02	9.066227e+02	9.571414e+02	9.352245e+02	9.776927e+02	9.936659e+02	1.001714e+03	9.071281e+02
					7.056548e+02	6.582161e+02	7.928025e+02	5.414903e+02	2.738142e+02	6.323319e+02	6.185833e+02	5.548957e+02	3.891831e+02
					6.772028e+02	5.966003e+02	6.275584e+02	6.729018e+02	5.298906e+02	4.327009e+02	4.908192e+02	3.450530e+02	4.058629e+02
					3.267396e+02	4.441765e+02	3.310515e+02	4.094908e+02	4.202276e+02	3.279360e+02	3.732783e+02	4.772404e+02	2.364402e+02
					5.735570e+02	6.149074e+02	2.859841e+02	3.052474e+02	3.291431e+02	3.663035e+02	3.541972e+02	4.076240e+02	4.295184e+02
					8.006358e+02	8.416498e+02	4.979357e+02	7.419377e+02	5.667800e+02	5.975655e+02	6.345193e+02	6.052192e+02	7.016320e+02
					5.841962e+02	8.209388e+02	6.450138e+02	7.936622e+02	8.601189e+02	8.262149e+02	7.582227e+02	9.043827e+02	9.308675e+02
					8.018334e+02	9.019897e+02	6.343691e+02	8.310199e+02	6.634389e+02	7.863964e+02	7.505944e+02	9.801352e+02	9.879524e+02
					9.643236e+02	9.538308e+02	9.895473e+02	9.762311e+02	9.833407e+02	9.581486e+02	9.659867e+02	9.681510e+02	9.550319e+02
					9.934317e+02	9.978218e+02	9.979972e+02	9.960238e+02	9.952335e+02	9.800511e+02	9.992478e+02	9.994671e+02	1.000757e+03
					9.960464e+02	9.954415e+02	9.986390e+02	9.833853e+02	9.953457e+02	9.718397e+02	9.878809e+02	9.528705e+02	9.637655e+02
					1.002321e+03	9.946323e+02	1.001504e+03	9.991779e+02	9.911421e+02	1.000583e+03	9.892014e+02	9.930707e+02	9.396040e+02
					8.371372e+02	8.363595e+02	8.397558e+02	9.332895e+02	9.391795e+02	8.734086e+02	9.361259e+02	9.387130e+02	8.975390e+02
					8.585963e+02	9.325358e+02	9.127547e+02	9.341312e+02	9.343822e+02	9.270691e+02	9.707178e+02	9.947927e+02	9.543005e+02
					9.651353e+02	1.002024e+03	1.000485e+03	1.001718e+03	9.996578e+02	1.000780e+03	1.000124e+03	9.881349e+02	8.780507e+02
					8.726730e+02	8.963468e+02	9.118873e+02	8.914667e+02	7.378362e+02	8.015384e+02	7.888219e+02	7.450605e+02	7.755260e+02
					7.508203e+02	9.050311e+02	8.771575e+02	9.045867e+02	8.610151e+02	8.910580e+02	8.479455e+02	8.789944e+02	8.629026e+02
					8.526242e+02	8.725862e+02	8.472948e+02	8.189762e+02	7.673803e+02	8.054093e+02	7.479477e+02	8.167691e+02	7.983752e+02
					8.415933e+02	8.251576e+02	8.147177e+02	8.010735e+02	9.094106e+02	6.788099e+02	7.232061e+02	7.010527e+02	6.806854e+02
					5.871266e+02	6.616363e+02	6.391746e+02	7.116696e+02	7.736262e+02	7.278935e+02	7.765284e+02	7.480409e+02	7.443965e+02
					7.928264e+02	9.030381e+02	8.524584e+02	8.939678e+02	8.325121e+02	9.777441e+02	1.002356e+03	9.985398e+02	1.001923e+03
					1.002374e+03	1.000577e+03	1.000659e+03	9.935189e+02	9.987359e+02	1.000947e+03	9.997822e+02	1.000556e+03	9.753837e+02
					8.935981e+02	8.706035e+02	7.861526e+02	8.329511e+02	7.623692e+02	7.804396e+02	7.348831e+02	6.644580e+02	6.355322e+02
					6.442398e+02	6.842648e+02	7.342281e+02	6.728384e+02	7.301275e+02	8.819083e+02	8.513123e+02	8.358850e+02	7.842770e+02
					8.006620e+02	9.250092e+02	8.734807e+02	7.851907e+02	7.560530e+02	7.282755e+02	8.812669e+02	8.363455e+02	8.603689e+02
					8.836426e+02	8.361687e+02	8.578810e+02	8.978202e+02	9.401255e+02	9.450633e+02	9.255991e+02	9.042115e+02	9.138301e+02
					9.282608e+02	9.372991e+02	9.190712e+02	8.565948e+02	8.326645e+02	8.168147e+02	8.522616e+02	8.678088e+02	8.255160e+02
					8.788070e+02	9.991009e+02	9.980122e+02	1.000988e+03	9.425105e+02	8.585445e+02	8.523131e+02	9.845186e+02	1.000483e+03
					9.650357e+02	9.107243e+02	9.797957e+02	9.767161e+02	9.526012e+02	9.851486e+02	9.959238e+02	9.920247e+02	9.439709e+02
					9.550283e+02	9.760137e+02	9.811527e+02	1.000779e+03	9.287255e+02	9.465163e+02	9.486988e+02	9.564759e+02	9.701130e+02
					8.775560e+02	9.314046e+02	9.597760e+02	9.294301e+02	8.777912e+02	9.303702e+02	9.217108e+02	8.344338e+02	9.174582e+02
					8.607462e+02	9.252297e+02	9.517296e+02	9.238189e+02	8.598872e+02	8.747703e+02	8.372773e+02	8.609559e+02	9.889319e+02
					8.188461e+02	9.013077e+02	8.717320e+02	7.980096e+02	9.125669e+02	8.371994e+02	9.294935e+02	8.162069e+02	7.733041e+02
					9.113866e+02	7.725596e+02	9.250576e+02	8.015035e+02	8.943941e+02	7.481678e+02	8.812482e+02	9.992369e+02	1.000383e+03
					1.000131e+03	1.001036e+03	9.751526e+02	9.998196e+02	9.979450e+02	9.811857e+02	9.960853e+02	9.093349e+02	8.818985e+02
					9.621475e+02	1.000381e+03	9.965550e+02	1.000774e+03	8.536495e+02	8.561529e+02	8.461032e+02	3.420222e+02	3.604128e+02