<?xml version="1.0"?>

<!--
CSMP_Simulation
-->

<VTKFile type="UnstructuredGrid" version="1.0" byte_order="LittleEndian">
	<UnstructuredGrid>
		<Piece NumberOfPoints="2922" NumberOfCells="5619">
			<Points>
				<DataArray type="Float64" Name="Position" NumberOfComponents="3" format="ascii">
					1.062348e+04	-6.219427e+03	0.000000e+00	1.328123e+04	-3.388001e+03	0.000000e+00	6.533000e+03	-2.871000e+03	0.000000e+00	8.993999e+03	3.450022e+02	0.000000e+00
					6.434000e+03	-6.251000e+03	0.000000e+00	6.415000e+03	-1.312000e+03	0.000000e+00	8.891000e+03	-1.610000e+02	0.000000e+00	1.593372e+04	-6.223812e+03	0.000000e+00
					1.243124e+04	-5.182061e+03	0.000000e+00	1.180818e+04	-6.661451e+03	0.000000e+00	1.199040e+04	-6.569837e+03	0.000000e+00	1.186573e+04	-6.450233e+03	0.000000e+00
					1.224666e+04	-6.222517e+03	0.000000e+00	1.208180e+04	-6.360720e+03	0.000000e+00	1.135568e+04	-6.216921e+03	0.000000e+00	1.177466e+04	-5.800292e+03	0.000000e+00
					1.484109e+03	2.369937e+02	0.000000e+00	1.048845e+04	-4.576829e+03	0.000000e+00	5.088007e+03	2.164612e+02	0.000000e+00	1.616065e+04	6.885872e+02	0.000000e+00
					5.856588e+03	2.844799e+02	0.000000e+00	5.964146e+03	2.322470e+02	0.000000e+00	1.285384e+04	-8.473227e+03	0.000000e+00	6.554646e+03	2.976259e+02	0.000000e+00
					6.220259e+03	3.810972e+02	0.000000e+00	2.455667e+03	2.604214e+02	0.000000e+00	1.185441e+04	-8.594387e+03	0.000000e+00	8.953729e+02	2.424411e+02	0.000000e+00
					1.642061e+04	5.389531e+02	0.000000e+00	9.022812e+03	5.486281e+02	0.000000e+00	1.072547e+04	-4.265213e+03	0.000000e+00	1.596156e+04	-4.568462e+03	0.000000e+00
					1.049681e+04	-6.339904e+03	0.000000e+00	1.229884e+04	9.679014e+02	0.000000e+00	1.346081e+04	9.303555e+02	0.000000e+00	7.674576e+03	2.576962e+02	0.000000e+00
					8.121128e+03	2.577928e+02	0.000000e+00	8.390419e+03	2.530714e+02	0.000000e+00	1.759058e+04	3.107264e+02	0.000000e+00	1.283469e+04	-3.190105e+03	0.000000e+00
					1.310544e+04	-3.163050e+03	0.000000e+00	6.218396e+03	2.847346e+02	0.000000e+00	1.964998e+04	3.306567e+02	0.000000e+00	1.089832e+04	6.517557e+02	0.000000e+00
					9.482042e+03	5.002750e+02	0.000000e+00	1.461891e+04	-3.601876e+03	0.000000e+00	1.694475e+04	2.822433e+02	0.000000e+00	1.223129e+04	-8.439639e+03	0.000000e+00
					7.092101e+03	3.133630e+02	0.000000e+00	7.447673e+03	2.954910e+02	0.000000e+00	5.479449e+03	3.927924e+02	0.000000e+00	1.430834e+04	-8.440884e+03	0.000000e+00
					1.346187e+04	-3.101654e+03	0.000000e+00	1.466219e+04	5.912805e+02	0.000000e+00	1.431424e+04	6.995984e+02	0.000000e+00	1.198158e+04	-3.600157e+03	0.000000e+00
					1.519729e+04	6.008027e+02	0.000000e+00	1.732254e+04	2.914492e+02	0.000000e+00	1.847268e+04	5.552377e+02	0.000000e+00	1.373014e+04	-3.092539e+03	0.000000e+00
					1.598609e+04	-4.803680e+03	0.000000e+00	1.811668e+03	2.957238e+02	0.000000e+00	2.068111e+03	3.301681e+02	0.000000e+00	3.593477e+02	6.241832e-01	0.000000e+00
					1.315684e+04	9.290093e+02	0.000000e+00	9.757773e+03	6.136685e+02	0.000000e+00	1.013994e+04	6.394650e+02	0.000000e+00	9.949611e+03	7.276424e+02	0.000000e+00
					1.479179e+04	-3.977888e+03	0.000000e+00	1.474764e+04	-3.691732e+03	0.000000e+00	1.224233e+04	-3.775151e+03	0.000000e+00	1.235721e+04	-3.992361e+03	0.000000e+00
					1.239488e+04	-3.732875e+03	0.000000e+00	1.247959e+04	-3.889221e+03	0.000000e+00	1.489970e+04	-6.402044e+03	0.000000e+00	1.471371e+04	-6.063480e+03	0.000000e+00
					1.503558e+04	-6.243497e+03	0.000000e+00	1.463383e+04	-6.231790e+03	0.000000e+00	1.359516e+04	-6.370837e+03	0.000000e+00	1.336635e+04	-6.229341e+03	0.000000e+00
					1.486979e+04	-7.470250e+03	0.000000e+00	1.455711e+04	-7.489929e+03	0.000000e+00	1.120299e+04	-4.942350e+03	0.000000e+00	1.218357e+04	-7.531530e+03	0.000000e+00
					1.251446e+04	-7.480192e+03	0.000000e+00	1.240108e+04	-7.647510e+03	0.000000e+00	1.239322e+04	-7.293615e+03	0.000000e+00	1.368325e+04	-7.242141e+03	0.000000e+00
					1.217897e+04	-5.028812e+03	0.000000e+00	1.378964e+04	8.854108e+02	0.000000e+00	1.351945e+04	-3.856343e+03	0.000000e+00	1.333151e+04	-3.674419e+03	0.000000e+00
					1.350782e+04	-3.520236e+03	0.000000e+00	1.479244e+04	-4.909493e+03	0.000000e+00	1.380050e+04	-4.989557e+03	0.000000e+00	3.084262e+03	3.746820e+02	0.000000e+00
					3.006144e+03	2.572346e+02	0.000000e+00	1.252005e+03	2.691829e+02	0.000000e+00	1.642126e+03	2.829086e+02	0.000000e+00	8.235090e+03	4.169793e+02	0.000000e+00
					1.537108e+04	-5.728762e+03	0.000000e+00	1.550100e+04	-5.598568e+03	0.000000e+00	1.543359e+04	-5.440257e+03	0.000000e+00	1.516251e+04	-4.367050e+03	0.000000e+00
					1.542543e+04	-4.626431e+03	0.000000e+00	1.547978e+04	-4.435709e+03	0.000000e+00	1.421355e+04	-5.774419e+03	0.000000e+00	1.398427e+04	-5.607986e+03	0.000000e+00
					1.433859e+04	-5.644592e+03	0.000000e+00	1.422646e+04	-5.431404e+03	0.000000e+00	1.278519e+04	-5.034132e+03	0.000000e+00	1.297347e+04	-4.888217e+03	0.000000e+00
					1.308886e+04	-5.058455e+03	0.000000e+00	1.295570e+04	-5.179625e+03	0.000000e+00	1.371210e+04	-5.548806e+03	0.000000e+00	1.306586e+04	-5.417419e+03	0.000000e+00
					1.398961e+04	-5.001093e+03	0.000000e+00	1.423737e+04	-5.238687e+03	0.000000e+00	1.553662e+04	-5.035070e+03	0.000000e+00	1.541510e+04	-5.176839e+03	0.000000e+00
					1.433199e+04	-4.490070e+03	0.000000e+00	1.772795e+04	4.701005e+02	0.000000e+00	1.301714e+04	-3.340203e+03	0.000000e+00	1.291928e+04	-6.673458e+03	0.000000e+00
					1.305404e+04	-6.847013e+03	0.000000e+00	1.275393e+04	-6.763001e+03	0.000000e+00	1.299225e+04	-6.992535e+03	0.000000e+00	1.111766e+04	-6.671729e+03	0.000000e+00
					1.100675e+04	-6.816450e+03	0.000000e+00	1.117046e+04	-6.969377e+03	0.000000e+00	1.205000e+04	-8.078535e+03	0.000000e+00	1.184148e+04	-7.859306e+03	0.000000e+00
					1.196430e+04	-8.231484e+03	0.000000e+00	1.298170e+04	-7.885249e+03	0.000000e+00	1.295062e+04	-8.221395e+03	0.000000e+00	1.309178e+04	-8.017537e+03	0.000000e+00
					1.120470e+04	-5.453850e+03	0.000000e+00	1.115255e+04	-5.738876e+03	0.000000e+00	1.126426e+04	-5.604117e+03	0.000000e+00	1.184009e+04	-5.022972e+03	0.000000e+00
					1.172669e+04	-4.862486e+03	0.000000e+00	1.153323e+04	-4.959783e+03	0.000000e+00	1.175756e+04	-5.171477e+03	0.000000e+00	1.534244e+04	-6.934844e+03	0.000000e+00
					1.455437e+04	-8.098472e+03	0.000000e+00	1.476956e+04	-7.877258e+03	0.000000e+00	1.464624e+04	-8.340289e+03	0.000000e+00	1.404268e+04	-7.444684e+03	0.000000e+00
					1.421918e+04	-7.630822e+03	0.000000e+00	1.428388e+04	-7.472196e+03	0.000000e+00	1.526650e+04	-7.239097e+03	0.000000e+00	1.513630e+04	-7.368500e+03	0.000000e+00
					1.581589e+04	-5.652546e+03	0.000000e+00	1.296440e+04	-6.343040e+03	0.000000e+00	1.295470e+04	-6.059130e+03	0.000000e+00	1.303797e+04	-6.200013e+03	0.000000e+00
					1.273442e+04	-6.210589e+03	0.000000e+00	1.360396e+04	-6.962240e+03	0.000000e+00	1.362392e+04	-6.655270e+03	0.000000e+00	1.339020e+04	-6.812359e+03	0.000000e+00
					6.442692e+03	4.405175e+02	0.000000e+00	3.840145e+03	2.404374e+02	0.000000e+00	3.475756e+03	2.459832e+02	0.000000e+00	3.582548e+03	3.131050e+02	0.000000e+00
					1.179383e+04	-4.550717e+03	0.000000e+00	1.173986e+04	-5.484162e+03	0.000000e+00	1.062189e+04	-5.748233e+03	0.000000e+00	1.180024e+04	-3.998124e+03	0.000000e+00
					1.173389e+04	-3.844468e+03	0.000000e+00	1.197836e+04	-3.861204e+03	0.000000e+00	1.188099e+04	-3.736811e+03	0.000000e+00	1.137465e+04	-4.416604e+03	0.000000e+00
					1.124799e+04	-4.291994e+03	0.000000e+00	1.108948e+04	-4.439061e+03	0.000000e+00	1.120866e+04	-4.578218e+03	0.000000e+00	1.076080e+04	-6.185724e+03	0.000000e+00
					1.052158e+04	-6.171076e+03	0.000000e+00	1.061654e+04	-6.082875e+03	0.000000e+00	1.068627e+04	-6.344822e+03	0.000000e+00	1.547934e+04	-6.007495e+03	0.000000e+00
					1.239362e+04	-8.015408e+03	0.000000e+00	1.231714e+04	-8.236339e+03	0.000000e+00	1.259828e+04	-8.069267e+03	0.000000e+00	1.701531e+04	4.509240e+02	0.000000e+00
					1.277290e+04	-3.855596e+03	0.000000e+00	1.248342e+04	-4.291681e+03	0.000000e+00	1.951687e+04	4.566190e+02	0.000000e+00	1.409639e+04	-3.762137e+03	0.000000e+00
					1.395297e+04	-3.853813e+03	0.000000e+00	1.426096e+04	-3.882789e+03	0.000000e+00	1.412655e+04	-4.015160e+03	0.000000e+00	1.454529e+04	-4.454906e+03	0.000000e+00
					1.477335e+04	-4.577894e+03	0.000000e+00	1.473337e+04	-4.284850e+03	0.000000e+00	1.486818e+04	-4.392328e+03	0.000000e+00	1.182077e+04	-6.079763e+03	0.000000e+00
					1.161805e+04	-6.234353e+03	0.000000e+00	1.190807e+04	-6.249025e+03	0.000000e+00	1.174207e+04	-6.340720e+03	0.000000e+00	1.216930e+04	-5.632604e+03	0.000000e+00
					1.242431e+04	-5.486649e+03	0.000000e+00	1.241345e+04	-5.774949e+03	0.000000e+00	1.249642e+04	-5.631837e+03	0.000000e+00	1.225177e+04	-5.774741e+03	0.000000e+00
					1.257980e+04	-5.777980e+03	0.000000e+00	1.225809e+04	-5.482228e+03	0.000000e+00	1.256570e+04	-5.502870e+03	0.000000e+00	1.238428e+04	-6.062964e+03	0.000000e+00
					1.282796e+04	-5.599574e+03	0.000000e+00	1.196367e+04	-6.067125e+03	0.000000e+00	1.167268e+04	-6.097839e+03	0.000000e+00	1.277630e+04	-6.604007e+03	0.000000e+00
					1.500551e+04	-7.272801e+03	0.000000e+00	1.436310e+04	-7.629506e+03	0.000000e+00	1.405447e+04	-7.614436e+03	0.000000e+00	1.378616e+04	-7.311337e+03	0.000000e+00
					1.449798e+04	-7.361653e+03	0.000000e+00	1.450249e+04	-7.635568e+03	0.000000e+00	1.431253e+04	-7.811639e+03	0.000000e+00	1.414808e+04	-7.968868e+03	0.000000e+00
					1.487244e+04	-7.758708e+03	0.000000e+00	1.460617e+04	-7.765267e+03	0.000000e+00	1.424603e+04	-8.234521e+03	0.000000e+00	1.448709e+04	-7.900806e+03	0.000000e+00
					1.464000e+04	-7.940785e+03	0.000000e+00	1.490539e+04	-7.933881e+03	0.000000e+00	1.510985e+04	-7.219671e+03	0.000000e+00	1.487015e+04	-7.309580e+03	0.000000e+00
					1.490000e+04	-6.991785e+03	0.000000e+00	1.434632e+04	-7.340104e+03	0.000000e+00	1.461365e+04	-7.391157e+03	0.000000e+00	1.466017e+04	-7.113627e+03	0.000000e+00
					1.516388e+04	-7.108649e+03	0.000000e+00	1.519896e+04	-6.954921e+03	0.000000e+00	1.522463e+04	-6.802707e+03	0.000000e+00	1.504350e+04	-6.973318e+03	0.000000e+00
[...]
			<PointData Scalars="bulk fluid density">
				<DataArray type="Float64" Name="bulk fluid density" NumberOfComponents="1" format="ascii">
					1.837332e+02	3.725862e+02	9.223647e+02	9.816556e+02	5.605329e+02	9.873857e+02	8.504557e+02	1.827552e+02
					3.279847e+02	4.097358e+02	4.059032e+02	4.006755e+02	3.906166e+02	3.968230e+02	3.899973e+02	3.655050e+02	1.000001e+03
					4.011281e+02	9.696741e+02	9.993918e+02	9.439543e+02	9.344337e+02	3.145456e+02	9.613164e+02	9.867479e+02	9.998855e+02
					2.792899e+02	9.996259e+02	9.995165e+02	9.954402e+02	3.998767e+02	2.895172e+02	1.554105e+02	9.998747e+02	9.998123e+02
					9.902973e+02	9.869840e+02	9.930652e+02	1.000520e+03	1.947163e+03	1.071467e+03	9.667397e+02	1.000181e+03	9.991212e+02
					9.972957e+02	9.839338e+02	9.992858e+02	4.201273e+02	9.924652e+02	9.917798e+02	9.542504e+02	4.181796e+02	7.734547e+02
					9.997274e+02	9.998889e+02	8.416197e+02	9.990686e+02	1.000287e+03	9.999262e+02	4.072812e+02	2.400944e+02	9.999445e+02
					9.998658e+02	9.971534e+02	1.000066e+03	9.994157e+02	9.998397e+02	9.995892e+02	5.896468e+02	9.604063e+02	5.159884e+02
					4.612700e+02	5.079527e+02	4.694481e+02	3.991740e+02	3.832295e+02	3.921000e+02	3.915505e+02	3.976445e+02	3.912268e+02
					4.425485e+02	4.434181e+02	3.064382e+02	4.446679e+02	4.427773e+02	4.491145e+02	4.355762e+02	4.337721e+02	3.186539e+02
					9.996942e+02	4.441431e+02	4.813359e+02	5.342269e+02	3.123628e+02	3.169754e+02	9.993456e+02	9.997766e+02	9.997629e+02
					9.998857e+02	9.946604e+02	3.620686e+02	3.538509e+02	3.442524e+02	2.299664e+02	2.691855e+02	2.005580e+02	3.647826e+02
					3.543950e+02	3.567700e+02	3.436600e+02	3.192754e+02	3.106360e+02	3.208486e+02	3.280589e+02	3.506657e+02	3.424498e+02
					3.177117e+02	3.319985e+02	3.146511e+02	3.242262e+02	2.873392e+02	9.998364e+02	5.499315e+02	4.105353e+02	4.179000e+02
					4.142615e+02	4.237894e+02	4.097269e+02	4.100808e+02	4.192770e+02	4.501707e+02	4.418962e+02	3.322697e+02	4.579402e+02
					4.648869e+02	4.626466e+02	3.437037e+02	3.612757e+02	3.529608e+02	3.181123e+02	3.084059e+02	3.140780e+02	3.269913e+02
					4.209263e+02	4.550968e+02	4.387570e+02	3.131860e+02	4.416530e+02	4.487422e+02	4.427315e+02	4.293819e+02	4.366276e+02
					3.044126e+02	3.962892e+02	3.824879e+02	3.897874e+02	3.902238e+02	4.227026e+02	4.099060e+02	4.164847e+02	9.917920e+02
					1.000006e+03	9.997186e+02	9.995202e+02	2.845908e+02	3.459319e+02	1.628004e+02	5.558022e+02	6.452405e+02	5.471002e+02
					8.149461e+02	2.662841e+02	2.150375e+02	1.649904e+02	2.776149e+02	3.578075e+02	1.548062e+02	1.823517e+02	1.909005e+02
					3.796348e+02	4.610951e+02	4.416406e+02	4.635687e+02	9.993976e+02	4.469080e+02	2.748518e+02	9.996774e+02	5.420311e+02
					4.867370e+02	5.275009e+02	4.655711e+02	2.860662e+02	2.870581e+02	4.985634e+02	5.046301e+02	3.833044e+02	3.909541e+02
					3.917249e+02	3.958281e+02	3.552705e+02	3.464290e+02	3.642238e+02	3.553695e+02	3.641460e+02	3.644740e+02	3.460828e+02
					3.474675e+02	3.824988e+02	3.534873e+02	3.825431e+02	3.843108e+02	4.075738e+02	4.349317e+02	4.487011e+02	4.481101e+02
					4.364899e+02	4.384987e+02	4.488898e+02	4.553106e+02	4.602090e+02	4.462410e+02	4.525192e+02	4.426074e+02	4.578532e+02
					4.536766e+02	3.831282e+02	4.325602e+02	4.364671e+02	4.239571e+02	4.376568e+02	4.396425e+02	4.287746e+02	4.282790e+02
					4.224543e+02	4.162087e+02	4.232188e+02	3.946216e+02	3.962619e+02	3.963582e+02	4.021106e+02	4.084570e+02	9.993493e+02
					9.998525e+02	9.992585e+02	9.995127e+02	9.998030e+02	9.995303e+02	9.996517e+02	1.000033e+03	9.978286e+02	9.936516e+02
					2.869904e+02	2.881886e+02	3.028212e+02	2.973820e+02	2.928964e+02	2.970575e+02	3.557428e+02	2.746435e+02	4.971527e+02
					9.039912e+02	1.006566e+03	2.981258e+02	9.146599e+02	5.450847e+02	5.925033e+02	2.723333e+02	3.757011e+02	9.059593e+02
					2.768852e+02	3.658615e+02	4.503793e+02	4.493055e+02	4.512325e+02	4.950789e+02	4.810705e+02	4.451103e+02	3.982386e+02
					5.422733e+02	2.791916e+02	4.678009e+02	5.448925e+02	4.637137e+02	4.964046e+02	2.827557e+02	9.995565e+02	9.997507e+02
					9.997995e+02	2.935819e+02	3.026732e+02	3.105456e+02	7.270935e+02	4.399825e+02	2.679769e+02	4.289714e+02	4.839849e+02
					9.737434e+02	5.341019e+02	5.127500e+02	4.884098e+02	5.458995e+02	3.260015e+02	3.160591e+02	4.603609e+02	4.498575e+02
					4.604274e+02	4.586968e+02	4.587607e+02	3.852223e+02	3.039787e+02	4.149200e+02	4.117002e+02	3.591327e+02	3.724513e+02
					3.819511e+02	3.708888e+02	3.979087e+02	4.054196e+02	3.966543e+02	3.807427e+02	3.743515e+02	3.729858e+02	3.636083e+02
					3.837866e+02	3.985722e+02	4.072401e+02	3.989938e+02	1.695505e+02	1.489029e+02	1.666389e+02	1.991325e+02	3.003750e+02
					1.471048e+02	2.971496e+02	2.934952e+02	1.754247e+02	1.746603e+02	1.536610e+02	1.762869e+02	1.385614e+02	2.582472e+02
					2.704124e+02	3.008731e+02	1.864709e+02	2.628428e+02	2.795167e+02	5.214265e+02	5.198068e+02	5.268656e+02	1.076727e+03
					5.630248e+02	4.848906e+02	5.310344e+02	2.398483e+02	5.205449e+02	1.049590e+03	2.421079e+02	2.432437e+02	3.808282e+02
					1.479973e+02	1.520238e+02	3.496430e+02	3.155922e+02	5.871022e+02	4.452314e+02	2.822559e+02	2.820902e+02	4.611142e+02
					2.745180e+02	5.006305e+02	5.004001e+02	4.593963e+02	9.996923e+02	9.996485e+02	9.998364e+02	9.998141e+02	9.984950e+02
					9.367052e+02	9.832764e+02	9.640727e+02	9.601746e+02	9.679195e+02	4.600530e+02	4.213741e+02	3.825078e+02	3.797414e+02
					3.586965e+02	3.686404e+02	3.861371e+02	3.716731e+02	3.635407e+02	3.979500e+02	3.974469e+02	4.033722e+02	4.050599e+02
					4.085939e+02	3.823580e+02	3.828482e+02	3.622802e+02	3.627398e+02	3.726637e+02	3.623155e+02	3.951283e+02	3.980914e+02
					4.103601e+02	4.109121e+02	3.983486e+02	4.030317e+02	4.045992e+02	4.108809e+02	1.688995e+02	1.797517e+02	1.712209e+02
					1.821433e+02	3.927268e+02	3.287770e+02	3.840030e+02	1.601232e+02	1.326466e+02	1.498504e+02	1.419122e+02	1.817080e+02
					1.924844e+02	3.241124e+02	1.521411e+02	1.760678e+02	3.466823e+02	3.746641e+02	3.668336e+02	1.583076e+02	4.334386e+02
					4.465898e+02	4.182746e+02	4.108478e+02	4.099101e+02	2.917753e+02	3.731559e+02	2.005021e+02	4.096610e+02	4.058945e+02
					4.304249e+02	4.474003e+02	3.904050e+02	3.562158e+02	3.779114e+02	3.476530e+02	3.915718e+02	3.980752e+02	3.903219e+02
					1.100380e+03	3.836396e+02	3.991276e+02	3.913262e+02	4.000813e+02	3.829364e+02	3.890737e+02	3.613446e+02	4.123303e+02
					4.403216e+02	4.860028e+02	4.421201e+02	4.903532e+02	9.998012e+02	4.045756e+02	4.001327e+02	4.034395e+02	4.086979e+02
					3.948445e+02	3.777753e+02	4.060744e+02	4.163798e+02	2.551910e+02	4.289480e+02	4.366387e+02	4.240577e+02	4.273400e+02
					4.219801e+02	4.169454e+02	4.198132e+02	4.137730e+02	3.985305e+02	4.107393e+02	4.067722e+02	4.159740e+02	4.217979e+02
					4.274629e+02	4.137316e+02	4.363990e+02	4.332416e+02	4.248830e+02	3.254615e+02	3.264553e+02	3.376268e+02	3.434519e+02
					3.338305e+02	3.833419e+02	3.856682e+02	3.734560e+02	3.737777e+02	3.640008e+02	3.770316e+02	3.418670e+02	3.250349e+02
					3.188863e+02	2.845562e+02	2.836237e+02	2.985078e+02	2.893985e+02	2.938779e+02	2.846749e+02	3.010880e+02	2.981383e+02
					3.452947e+02	3.331385e+02	3.239469e+02	3.346766e+02	3.440797e+02	3.256999e+02	3.192063e+02	3.648709e+02	3.572163e+02
					3.622106e+02	3.700884e+02	3.769393e+02	3.715526e+02	3.362769e+02	3.212586e+02	3.604053e+02	3.437149e+02	3.252111e+02
					3.307518e+02	3.458424e+02	3.273146e+02	3.275754e+02	3.368357e+02	3.459239e+02	3.363973e+02	3.278384e+02	3.624010e+02
					3.720833e+02	3.662100e+02	3.876068e+02	3.732805e+02	3.808931e+02	3.693256e+02	3.855912e+02	3.780795e+02	3.818174e+02
					2.923156e+02	3.089718e+02	3.004655e+02	2.900161e+02	3.093958e+02	2.994054e+02	3.099290e+02	2.918580e+02	1.739781e+02
					4.069239e+02	3.719093e+02	1.664538e+02	4.026578e+02	3.642074e+02	3.950941e+02	2.702460e+02	4.125354e+02	4.239036e+02
					4.298054e+02	4.359337e+02	4.241836e+02	4.356153e+02	4.469947e+02	4.354152e+02	4.476908e+02	4.227636e+02	4.168205e+02
					4.238528e+02	4.172674e+02	4.114486e+02	4.104336e+02	4.235319e+02	4.473780e+02	4.595437e+02	4.542454e+02	4.479992e+02
					4.555044e+02	4.568130e+02	4.520293e+02	4.294339e+02	4.229930e+02	4.271348e+02	4.307966e+02	4.365382e+02	4.624527e+02
					4.573840e+02	4.622118e+02	4.618206e+02	4.613514e+02	3.129264e+02	4.419365e+02	4.592377e+02	3.357150e+02	4.604685e+02
					4.665320e+02	4.640331e+02	4.660958e+02	4.653888e+02	4.531616e+02	4.477853e+02	4.613370e+02	4.591861e+02	4.463373e+02
					4.578369e+02	4.491880e+02	4.461079e+02	4.501083e+02	4.254667e+02	4.352006e+02	4.320142e+02	4.279560e+02	4.242749e+02
					4.329574e+02	4.363335e+02	4.117901e+02	3.978577e+02	4.037287e+02	4.147420e+02	3.979997e+02	4.310683e+02	3.470813e+02
					4.443360e+02	4.456267e+02	4.445087e+02	3.567413e+02	3.518313e+02	3.170248e+02	4.175652e+02	4.188864e+02	4.113339e+02
					4.235529e+02	4.248116e+02	2.011898e+02	4.089695e+02	3.966598e+02	4.361646e+02	4.196648e+02	4.157634e+02	3.857429e+02
					4.567118e+02	4.440595e+02	4.553780e+02	4.504036e+02	4.561818e+02	4.434047e+02	4.308649e+02	4.359447e+02	4.245886e+02
					4.276334e+02	4.347531e+02	4.228705e+02	4.311677e+02	4.340075e+02	1.784161e+02	5.174075e+02	5.542219e+02	4.882628e+02
					4.127688e+02	9.996966e+02	5.156045e+02	9.994601e+02	9.997330e+02	9.995627e+02	9.995592e+02	9.994645e+02	1.004046e+03
					1.001908e+03	1.002366e+03	1.002680e+03	1.003770e+03	1.004261e+03	1.004671e+03	1.004294e+03	5.625788e+02	5.535693e+02
					2.624805e+02	2.655790e+02	9.996225e+02	1.003545e+03	1.004441e+03	1.000906e+03	9.998832e+02	4.151264e+02	2.712653e+02
					2.654842e+02	4.954939e+02	5.775507e+02	5.298373e+02	3.248324e+02	1.080001e+03	1.049177e+03	9.730304e+02	2.911962e+02
					2.732329e+02	2.803838e+02	2.833372e+02	2.749994e+02	2.954718e+02	3.782009e+02	3.432458e+02	2.063893e+02	3.433927e+02
					3.371005e+02	3.053258e+02	3.235480e+02	1.857379e+02	3.442220e+02	3.289943e+02	3.079949e+02	2.999399e+02	3.115224e+02
					2.939987e+02	2.702579e+02	2.867838e+02	2.764269e+02	2.815069e+02	2.736661e+02	2.938570e+02	2.750421e+02	2.875313e+02
					2.761332e+02	4.186888e+02	2.640435e+02	2.725556e+02	2.664011e+02	2.852662e+02	3.067201e+02	2.887161e+02	2.930582e+02
					3.110840e+02	2.961466e+02	3.396188e+02	3.247483e+02	3.830522e+02	3.630248e+02	3.436187e+02	3.273380e+02	2.875760e+02
					3.050151e+02	2.904253e+02	2.955107e+02	3.079748e+02	3.446882e+02	3.530886e+02	3.511116e+02	3.444289e+02	3.630893e+02
					3.839696e+02	3.360929e+02	3.441130e+02	3.253233e+02	3.355181e+02	3.237513e+02	3.283587e+02	3.438770e+02	3.264259e+02
					3.449505e+02	3.361967e+02	3.283726e+02	3.324657e+02	3.052086e+02	3.139623e+02	2.983104e+02	3.049223e+02	2.909860e+02
					3.089433e+02	3.137042e+02	3.191732e+02	3.116696e+02	3.373402e+02	3.469967e+02	3.454371e+02	3.446457e+02	3.505097e+02
					3.669708e+02	3.637399e+02	3.834462e+02	1.978522e+02	3.527668e+02	2.965278e+02	2.487546e+02	2.830530e+02	3.054819e+02
					3.506391e+02	3.649173e+02	3.516981e+02	3.486179e+02	3.602718e+02	3.234781e+02	3.012192e+02	3.434409e+02	3.110673e+02
					3.469266e+02	3.258337e+02	3.300494e+02	3.275540e+02	9.991245e+02	9.970304e+02	1.000142e+03	9.970531e+02	9.963266e+02
					9.962727e+02	9.997249e+02	9.993597e+02	9.996084e+02	9.984691e+02	9.941150e+02	9.950515e+02	9.994897e+02	9.995360e+02
					9.991626e+02	9.996698e+02	9.995423e+02	2.892521e+02	2.958689e+02	3.085571e+02	3.115899e+02	3.289428e+02	3.110948e+02
					3.286760e+02	3.181252e+02	3.201580e+02	3.369085e+02	3.442327e+02	3.294490e+02	3.366674e+02	3.313193e+02	3.052225e+02
					3.281780e+02	3.049553e+02	3.205142e+02	5.217665e+02	5.175525e+02	5.626515e+02	1.058109e+03	4.275203e+02	4.472781e+02
					5.054206e+02	4.456157e+02	4.428766e+02	4.083575e+02	2.629061e+02	2.687973e+02	9.994583e+02	4.526459e+02	4.573500e+02
					4.450640e+02	4.428763e+02	4.400435e+02	4.478080e+02	4.411783e+02	4.368674e+02	4.653931e+02	4.388346e+02	4.357092e+02
					4.490153e+02	4.504331e+02	4.422688e+02	4.413552e+02	2.863748e+02	4.479303e+02	4.333854e+02	4.257233e+02	4.379494e+02
					8.048563e+02	8.084288e+02	8.593181e+02	7.725955e+02	6.941158e+02	8.029944e+02	7.289015e+02	6.999646e+02	5.138849e+02
					3.757162e+02	3.400251e+02	3.911849e+02	7.879931e+02	7.631003e+02	7.357806e+02	7.204019e+02	6.779552e+02	6.117375e+02
					6.542913e+02	6.739022e+02	3.236432e+02	3.437612e+02	2.636686e+02	3.709487e+02	3.921266e+02	4.733384e+02	3.221999e+02
					3.302634e+02	5.626985e+02	5.922036e+02	6.809096e+02	4.567579e+02	6.610461e+02	7.669930e+02	8.446705e+02	7.456793e+02
					4.015155e+02	4.093933e+02	3.965764e+02	3.991479e+02	4.035655e+02	7.556980e+02	7.253580e+02	7.549743e+02	1.000504e+03
					1.000201e+03	1.001603e+03	1.001277e+03	9.946725e+02	9.897975e+02	9.930350e+02	9.987699e+02	9.489036e+02	9.496021e+02
					9.617251e+02	9.588763e+02	8.504987e+02	8.195197e+02	8.764616e+02	8.533643e+02	1.000498e+03	9.934506e+02	9.892962e+02
					9.992244e+02	1.000767e+03	8.767568e+02	8.800337e+02	8.216052e+02	1.000132e+03	9.997112e+02	1.000937e+03	8.714577e+02
					8.853820e+02	8.506926e+02	4.347513e+02	5.171995e+02	4.563478e+02	9.291948e+02	9.698674e+02	9.222842e+02	6.205646e+02
					5.695813e+02	5.609722e+02	5.053305e+02	2.653963e+02	2.704138e+02	2.699076e+02	2.908807e+02	2.753718e+02	2.727123e+02
					4.059822e+02	3.720779e+02	3.927515e+02	3.915156e+02	2.685272e+02	2.633056e+02	2.948131e+02	2.922685e+02	1.722880e+02
					9.029533e+02	8.996951e+02	8.770582e+02	9.259174e+02	7.651882e+02	7.984133e+02	7.512092e+02	8.140204e+02	7.297078e+02
					6.310599e+02	3.908757e+02	2.175918e+02	4.268731e+02	4.234949e+02	8.443426e+02	8.127874e+02	8.118530e+02	8.672671e+02
					8.984498e+02	8.636879e+02	9.199546e+02	1.068459e+03	5.864975e+02	4.971527e+02	7.184232e+02	6.401213e+02	8.458302e+02
					8.884780e+02	7.129445e+02	7.374991e+02	6.577206e+02	8.866890e+02	2.899714e+02	4.898261e+02	3.710789e+02	7.066928e+02
					7.295583e+02	2.958001e+02	2.779353e+02	3.043789e+02	2.716180e+02	3.568829e+02	4.010430e+02	3.973661e+02	2.875168e+02
					2.904790e+02	2.509224e+02	2.595309e+02	2.788241e+02	3.032957e+02	2.730200e+02	3.927564e+02	3.864288e+02	4.320784e+02
					4.426676e+02	4.390545e+02	4.551090e+02	4.281810e+02	2.745197e+02	4.429610e+02	2.754121e+02	4.407267e+02	4.413171e+02
					4.514688e+02	3.160877e+02	2.748206e+02	2.794241e+02	2.648782e+02	2.729907e+02	2.838075e+02	2.938148e+02	4.014994e+02
					3.626635e+02	3.385295e+02	3.679862e+02	3.619899e+02	4.087017e+02	3.997028e+02	4.076875e+02	3.810459e+02	3.830560e+02
					3.469123e+02	9.822909e+02	1.001540e+03	9.977444e+02	1.002636e+03	8.495821e+02	7.787909e+02	7.295478e+02	8.231886e+02
					9.996134e+02	1.000767e+03	9.995689e+02	9.538141e+02	9.975249e+02	9.057718e+02	9.316913e+02	9.781992e+02	9.206273e+02
					9.430743e+02	9.066773e+02	9.718242e+02	9.596604e+02	9.721633e+02	9.999127e+02	9.968355e+02	1.000458e+03	1.002355e+03
					2.601248e+02	4.599769e+02	5.804506e+02	6.081584e+02	7.612279e+02	8.089054e+02	8.643136e+02	8.453939e+02	7.489724e+02
					3.162530e+02	3.366643e+02	3.200567e+02	3.001319e+02	9.521434e+02	8.942880e+02	8.048307e+02	8.210041e+02	1.000244e+03
					8.869716e+02	9.533699e+02	8.405589e+02	8.409376e+02	9.334002e+02	9.126819e+02	9.188139e+02	9.307379e+02	9.473897e+02
					9.631736e+02	9.478723e+02	9.753558e+02	9.923229e+02	9.776679e+02	9.782422e+02	1.001458e+03	9.953810e+02	9.872468e+02
					9.573107e+02	9.476021e+02	9.980436e+02	9.973136e+02	9.450671e+02	9.653239e+02	9.483682e+02	8.472114e+02	8.149734e+02
					8.508713e+02	8.788234e+02	7.449770e+02	7.161874e+02	6.650984e+02	7.022551e+02	8.017034e+02	8.385686e+02	8.510190e+02
					8.243226e+02	9.713151e+02	9.372349e+02	9.492456e+02	9.282701e+02	1.001958e+03	1.000685e+03	7.267325e+02	7.493668e+02
					9.328901e+02	9.440443e+02	9.367541e+02	9.999429e+02	1.001156e+03	9.947105e+02	9.853752e+02	9.233267e+02	9.068490e+02
					9.359684e+02	9.240723e+02	9.042182e+02	9.001802e+02	8.661058e+02	9.432495e+02	9.188137e+02	9.419369e+02	1.000854e+03
					1.001591e+03	1.002165e+03	1.002394e+03	9.954904e+02	9.880678e+02	9.956554e+02	1.000103e+03	1.001162e+03	9.998049e+02
					1.002214e+03	9.744291e+02	9.568439e+02	9.888262e+02	9.735802e+02	9.894907e+02	9.981137e+02	1.001897e+03	9.337366e+02
					7.754632e+02	7.522234e+02	8.716537e+02	5.185858e+02	5.020909e+02	5.187017e+02	6.023160e+02	5.301706e+02	3.669126e+02
					6.931314e+02	6.009598e+02	6.385902e+02	6.920526e+02	5.250214e+02	4.127931e+02	4.824418e+02	2.877585e+02	3.415116e+02
					3.013040e+02	4.097569e+02	2.664223e+02	3.258426e+02	3.403714e+02	2.684227e+02	3.033687e+02	4.030593e+02	2.201229e+02
					5.501646e+02	6.165866e+02	5.104562e+02	5.943202e+02	4.912178e+02	5.928885e+02	8.135290e+02	6.484962e+02	4.912393e+02
					8.464435e+02	9.161607e+02	6.633500e+02	8.223001e+02	7.452133e+02	8.160307e+02	8.166669e+02	7.947252e+02	7.023587e+02
					5.332639e+02	7.877005e+02	7.527564e+02	7.500421e+02	8.353631e+02	7.608302e+02	6.739494e+02	9.209459e+02	9.543896e+02
					8.434960e+02	9.085415e+02	7.441536e+02	8.453195e+02	7.796243e+02	8.177447e+02	8.675665e+02	9.877411e+02	9.959025e+02
					9.901942e+02	9.885455e+02	9.982000e+02	9.914590e+02	9.978628e+02	9.842187e+02	9.947442e+02	9.943622e+02	9.898206e+02
					9.969440e+02	9.999871e+02	9.992343e+02	9.986623e+02	9.974535e+02	9.994908e+02	1.000223e+03	9.998049e+02	1.002514e+03
					1.003618e+03	1.002911e+03	1.002760e+03	1.000949e+03	1.002136e+03	9.989323e+02	1.001778e+03	9.629946e+02	9.856943e+02
					1.002887e+03	1.001155e+03	1.002964e+03	1.002718e+03	1.001874e+03	1.002051e+03	1.000175e+03	1.001852e+03	9.415214e+02
					8.947113e+02	8.995921e+02	9.029647e+02	9.304673e+02	9.463665e+02	8.907597e+02	9.353037e+02	9.518851e+02	9.067272e+02
					8.719354e+02	9.326700e+02	9.127693e+02	9.538948e+02	9.412051e+02	9.264438e+02	9.710045e+02	9.973385e+02	9.568905e+02
					9.661198e+02	1.002292e+03	1.000497e+03	1.001780e+03	1.000511e+03	1.000796e+03	1.000145e+03	9.882867e+02	8.859797e+02
					8.785919e+02	8.984281e+02	9.097925e+02	8.917255e+02	7.652664e+02	8.272970e+02	8.131651e+02	7.719488e+02	8.042054e+02
					7.754703e+02	9.212372e+02	8.889149e+02	9.159487e+02	8.793262e+02	9.074365e+02	8.655903e+02	9.078092e+02	8.883084e+02
					8.835471e+02	8.923763e+02	8.710581e+02	8.408118e+02	7.982378e+02	8.353999e+02	7.766252e+02	8.438144e+02	8.312259e+02
					8.768901e+02	8.575918e+02	8.529009e+02	8.363034e+02	9.054960e+02	6.934541e+02	7.460442e+02	7.189522e+02	6.964186e+02
					5.889715e+02	6.737656e+02	6.476736e+02	7.331620e+02	8.079520e+02	7.518604e+02	8.115183e+02	7.764437e+02	7.730837e+02
					8.288151e+02	9.296723e+02	8.915836e+02	9.279700e+02	8.705931e+02	9.836525e+02	1.002704e+03	1.002100e+03	1.002878e+03
					1.002724e+03	1.002949e+03	1.000667e+03	9.974222e+02	1.001622e+03	1.000975e+03	9.997838e+02	1.000721e+03	9.876736e+02
					9.013116e+02	9.251276e+02	7.951623e+02	8.551306e+02	7.828854e+02	8.025899e+02	7.452493e+02	6.766663e+02	6.360313e+02
					6.525279e+02	6.953265e+02	7.511142e+02	6.760383e+02	7.542155e+02	9.353018e+02	9.034458e+02	8.835940e+02	8.194534e+02
					8.409493e+02	9.622016e+02	9.230570e+02	8.195256e+02	7.857393e+02	7.507004e+02	9.254847e+02	8.703834e+02	9.027747e+02
					9.246255e+02	8.741029e+02	8.965578e+02	9.549062e+02	9.816522e+02	9.867183e+02	9.767197e+02	9.585697e+02	9.676437e+02
					9.793559e+02	9.799188e+02	9.680204e+02	9.101994e+02	8.814602e+02	8.615744e+02	8.993569e+02	9.195667e+02	8.701135e+02
					9.286948e+02	1.000728e+03	1.002463e+03	1.001727e+03	9.679521e+02	9.204639e+02	9.154244e+02	1.000492e+03	1.002697e+03
					9.910955e+02	9.406529e+02	9.981950e+02	9.965132e+02	9.752328e+02	1.001020e+03	1.002643e+03	1.002216e+03	9.883794e+02
					9.926707e+02	9.999792e+02	1.000506e+03	1.002340e+03	9.533897e+02	9.753497e+02	9.676864e+02	9.773404e+02	9.908174e+02
					9.090284e+02	9.601428e+02	9.853703e+02	9.636872e+02	9.175313e+02	9.684903e+02	9.706484e+02	8.763959e+02	9.381314e+02
					8.772816e+02	9.527085e+02	9.717007e+02	9.568591e+02	8.864392e+02	9.122607e+02	8.400599e+02	9.322913e+02	9.931626e+02