<?xml version="1.0"?>

<!--
CSMP_Simulation
-->

<VTKFile type="UnstructuredGrid" version="1.0" byte_order="LittleEndian">
	<UnstructuredGrid>
		<Piece NumberOfPoints="2922" NumberOfCells="5619">
			<Points>
				<DataArray type="Float64" Name="Position" NumberOfComponents="3" format="ascii">
					1.062348e+04	-6.219427e+03	0.000000e+00	1.328123e+04	-3.388001e+03	0.000000e+00	6.533000e+03	-2.871000e+03	0.000000e+00	8.993999e+03	3.450022e+02	0.000000e+00
					6.434000e+03	-6.251000e+03	0.000000e+00	6.415000e+03	-1.312000e+03	0.000000e+00	8.891000e+03	-1.610000e+02	0.000000e+00	1.593372e+04	-6.223812e+03	0.000000e+00
					1.243124e+04	-5.182061e+03	0.000000e+00	1.180818e+04	-6.661451e+03	0.000000e+00	1.199040e+04	-6.569837e+03	0.000000e+00	1.186573e+04	-6.450233e+03	0.000000e+00
					1.224666e+04	-6.222517e+03	0.000000e+00	1.208180e+04	-6.360720e+03	0.000000e+00	1.135568e+04	-6.216921e+03	0.000000e+00	1.177466e+04	-5.800292e+03	0.000000e+00
					1.484109e+03	2.369937e+02	0.000000e+00	1.048845e+04	-4.576829e+03	0.000000e+00	5.088007e+03	2.164612e+02	0.000000e+00	1.616065e+04	6.885872e+02	0.000000e+00
					5.856588e+03	2.844799e+02	0.000000e+00	5.964146e+03	2.322470e+02	0.000000e+00	1.285384e+04	-8.473227e+03	0.000000e+00	6.554646e+03	2.976259e+02	0.000000e+00
					6.220259e+03	3.810972e+02	0.000000e+00	2.455667e+03	2.604214e+02	0.000000e+00	1.185441e+04	-8.594387e+03	0.000000e+00	8.953729e+02	2.424411e+02	0.000000e+00
					1.642061e+04	5.389531e+02	0.000000e+00	9.022812e+03	5.486281e+02	0.000000e+00	1.072547e+04	-4.265213e+03	0.000000e+00	1.596156e+04	-4.568462e+03	0.000000e+00
					1.049681e+04	-6.339904e+03	0.000000e+00	1.229884e+04	9.679014e+02	0.000000e+00	1.346081e+04	9.303555e+02	0.000000e+00	7.674576e+03	2.576962e+02	0.000000e+00
					8.121128e+03	2.577928e+02	0.000000e+00	8.390419e+03	2.530714e+02	0.000000e+00	1.759058e+04	3.107264e+02	0.000000e+00	1.283469e+04	-3.190105e+03	0.000000e+00
					1.310544e+04	-3.163050e+03	0.000000e+00	6.218396e+03	2.847346e+02	0.000000e+00	1.964998e+04	3.306567e+02	0.000000e+00	1.089832e+04	6.517557e+02	0.000000e+00
					9.482042e+03	5.002750e+02	0.000000e+00	1.461891e+04	-3.601876e+03	0.000000e+00	1.694475e+04	2.822433e+02	0.000000e+00	1.223129e+04	-8.439639e+03	0.000000e+00
					7.092101e+03	3.133630e+02	0.000000e+00	7.447673e+03	2.954910e+02	0.000000e+00	5.479449e+03	3.927924e+02	0.000000e+00	1.430834e+04	-8.440884e+03	0.000000e+00
					1.346187e+04	-3.101654e+03	0.000000e+00	1.466219e+04	5.912805e+02	0.000000e+00	1.431424e+04	6.995984e+02	0.000000e+00	1.198158e+04	-3.600157e+03	0.000000e+00
					1.519729e+04	6.008027e+02	0.000000e+00	1.732254e+04	2.914492e+02	0.000000e+00	1.847268e+04	5.552377e+02	0.000000e+00	1.373014e+04	-3.092539e+03	0.000000e+00
					1.598609e+04	-4.803680e+03	0.000000e+00	1.811668e+03	2.957238e+02	0.000000e+00	2.068111e+03	3.301681e+02	0.000000e+00	3.593477e+02	6.241832e-01	0.000000e+00
					1.315684e+04	9.290093e+02	0.000000e+00	9.757773e+03	6.136685e+02	0.000000e+00	1.013994e+04	6.394650e+02	0.000000e+00	9.949611e+03	7.276424e+02	0.000000e+00
					1.479179e+04	-3.977888e+03	0.000000e+00	1.474764e+04	-3.691732e+03	0.000000e+00	1.224233e+04	-3.775151e+03	0.000000e+00	1.235721e+04	-3.992361e+03	0.000000e+00
					1.239488e+04	-3.732875e+03	0.000000e+00	1.247959e+04	-3.889221e+03	0.000000e+00	1.489970e+04	-6.402044e+03	0.000000e+00	1.471371e+04	-6.063480e+03	0.000000e+00
					1.503558e+04	-6.243497e+03	0.000000e+00	1.463383e+04	-6.231790e+03	0.000000e+00	1.359516e+04	-6.370837e+03	0.000000e+00	1.336635e+04	-6.229341e+03	0.000000e+00
					1.486979e+04	-7.470250e+03	0.000000e+00	1.455711e+04	-7.489929e+03	0.000000e+00	1.120299e+04	-4.942350e+03	0.000000e+00	1.218357e+04	-7.531530e+03	0.000000e+00
					1.251446e+04	-7.480192e+03	0.000000e+00	1.240108e+04	-7.647510e+03	0.000000e+00	1.239322e+04	-7.293615e+03	0.000000e+00	1.368325e+04	-7.242141e+03	0.000000e+00
					1.217897e+04	-5.028812e+03	0.000000e+00	1.378964e+04	8.854108e+02	0.000000e+00	1.351945e+04	-3.856343e+03	0.000000e+00	1.333151e+04	-3.674419e+03	0.000000e+00
					1.350782e+04	-3.520236e+03	0.000000e+00	1.479244e+04	-4.909493e+03	0.000000e+00	1.380050e+04	-4.989557e+03	0.000000e+00	3.084262e+03	3.746820e+02	0.000000e+00
					3.006144e+03	2.572346e+02	0.000000e+00	1.252005e+03	2.691829e+02	0.000000e+00	1.642126e+03	2.829086e+02	0.000000e+00	8.235090e+03	4.169793e+02	0.000000e+00
					1.537108e+04	-5.728762e+03	0.000000e+00	1.550100e+04	-5.598568e+03	0.000000e+00	1.543359e+04	-5.440257e+03	0.000000e+00	1.516251e+04	-4.367050e+03	0.000000e+00
					1.542543e+04	-4.626431e+03	0.000000e+00	1.547978e+04	-4.435709e+03	0.000000e+00	1.421355e+04	-5.774419e+03	0.000000e+00	1.398427e+04	-5.607986e+03	0.000000e+00
					1.433859e+04	-5.644592e+03	0.000000e+00	1.422646e+04	-5.431404e+03	0.000000e+00	1.278519e+04	-5.034132e+03	0.000000e+00	1.297347e+04	-4.888217e+03	0.000000e+00
					1.308886e+04	-5.058455e+03	0.000000e+00	1.295570e+04	-5.179625e+03	0.000000e+00	1.371210e+04	-5.548806e+03	0.000000e+00	1.306586e+04	-5.417419e+03	0.000000e+00
					1.398961e+04	-5.001093e+03	0.000000e+00	1.423737e+04	-5.238687e+03	0.000000e+00	1.553662e+04	-5.035070e+03	0.000000e+00	1.541510e+04	-5.176839e+03	0.000000e+00
					1.433199e+04	-4.490070e+03	0.000000e+00	1.772795e+04	4.701005e+02	0.000000e+00	1.301714e+04	-3.340203e+03	0.000000e+00	1.291928e+04	-6.673458e+03	0.000000e+00
					1.305404e+04	-6.847013e+03	0.000000e+00	1.275393e+04	-6.763001e+03	0.000000e+00	1.299225e+04	-6.992535e+03	0.000000e+00	1.111766e+04	-6.671729e+03	0.000000e+00
					1.100675e+04	-6.816450e+03	0.000000e+00	1.117046e+04	-6.969377e+03	0.000000e+00	1.205000e+04	-8.078535e+03	0.000000e+00	1.184148e+04	-7.859306e+03	0.000000e+00
					1.196430e+04	-8.231484e+03	0.000000e+00	1.298170e+04	-7.885249e+03	0.000000e+00	1.295062e+04	-8.221395e+03	0.000000e+00	1.309178e+04	-8.017537e+03	0.000000e+00
					1.120470e+04	-5.453850e+03	0.000000e+00	1.115255e+04	-5.738876e+03	0.000000e+00	1.126426e+04	-5.604117e+03	0.000000e+00	1.184009e+04	-5.022972e+03	0.000000e+00
					1.172669e+04	-4.862486e+03	0.000000e+00	1.153323e+04	-4.959783e+03	0.000000e+00	1.175756e+04	-5.171477e+03	0.000000e+00	1.534244e+04	-6.934844e+03	0.000000e+00
					1.455437e+04	-8.098472e+03	0.000000e+00	1.476956e+04	-7.877258e+03	0.000000e+00	1.464624e+04	-8.340289e+03	0.000000e+00	1.404268e+04	-7.444684e+03	0.000000e+00
					1.421918e+04	-7.630822e+03	0.000000e+00	1.428388e+04	-7.472196e+03	0.000000e+00	1.526650e+04	-7.239097e+03	0.000000e+00	1.513630e+04	-7.368500e+03	0.000000e+00
					1.581589e+04	-5.652546e+03	0.000000e+00	1.296440e+04	-6.343040e+03	0.000000e+00	1.295470e+04	-6.059130e+03	0.000000e+00	1.303797e+04	-6.200013e+03	0.000000e+00
					1.273442e+04	-6.210589e+03	0.000000e+00	1.360396e+04	-6.962240e+03	0.000000e+00	1.362392e+04	-6.655270e+03	0.000000e+00	1.339020e+04	-6.812359e+03	0.000000e+00
					6.442692e+03	4.405175e+02	0.000000e+00	3.840145e+03	2.404374e+02	0.000000e+00	3.475756e+03	2.459832e+02	0.000000e+00	3.582548e+03	3.131050e+02	0.000000e+00
					1.179383e+04	-4.550717e+03	0.000000e+00	1.173986e+04	-5.484162e+03	0.000000e+00	1.062189e+04	-5.748233e+03	0.000000e+00	1.180024e+04	-3.998124e+03	0.000000e+00
					1.173389e+04	-3.844468e+03	0.000000e+00	1.197836e+04	-3.861204e+03	0.000000e+00	1.188099e+04	-3.736811e+03	0.000000e+00	1.137465e+04	-4.416604e+03	0.000000e+00
					1.124799e+04	-4.291994e+03	0.000000e+00	1.108948e+04	-4.439061e+03	0.000000e+00	1.120866e+04	-4.578218e+03	0.000000e+00	1.076080e+04	-6.185724e+03	0.000000e+00
					1.052158e+04	-6.171076e+03	0.000000e+00	1.061654e+04	-6.082875e+03	0.000000e+00	1.068627e+04	-6.344822e+03	0.000000e+00	1.547934e+04	-6.007495e+03	0.000000e+00
					1.239362e+04	-8.015408e+03	0.000000e+00	1.231714e+04	-8.236339e+03	0.000000e+00	1.259828e+04	-8.069267e+03	0.000000e+00	1.701531e+04	4.509240e+02	0.000000e+00
					1.277290e+04	-3.855596e+03	0.000000e+00	1.248342e+04	-4.291681e+03	0.000000e+00	1.951687e+04	4.566190e+02	0.000000e+00	1.409639e+04	-3.762137e+03	0.000000e+00
					1.395297e+04	-3.853813e+03	0.000000e+00	1.426096e+04	-3.882789e+03	0.000000e+00	1.412655e+04	-4.015160e+03	0.000000e+00	1.454529e+04	-4.454906e+03	0.000000e+00
					1.477335e+04	-4.577894e+03	0.000000e+00	1.473337e+04	-4.284850e+03	0.000000e+00	1.486818e+04	-4.392328e+03	0.000000e+00	1.182077e+04	-6.079763e+03	0.000000e+00
					1.161805e+04	-6.234353e+03	0.000000e+00	1.190807e+04	-6.249025e+03	0.000000e+00	1.174207e+04	-6.340720e+03	0.000000e+00	1.216930e+04	-5.632604e+03	0.000000e+00
					1.242431e+04	-5.486649e+03	0.000000e+00	1.241345e+04	-5.774949e+03	0.000000e+00	1.249642e+04	-5.631837e+03	0.000000e+00	1.225177e+04	-5.774741e+03	0.000000e+00
					1.257980e+04	-5.777980e+03	0.000000e+00	1.225809e+04	-5.482228e+03	0.000000e+00	1.256570e+04	-5.502870e+03	0.000000e+00	1.238428e+04	-6.062964e+03	0.000000e+00
					1.282796e+04	-5.599574e+03	0.000000e+00	1.196367e+04	-6.067125e+03	0.000000e+00	1.167268e+04	-6.097839e+03	0.000000e+00	1.277630e+04	-6.604007e+03	0.000000e+00
					1.500551e+04	-7.272801e+03	0.000000e+00	1.436310e+04	-7.629506e+03	0.000000e+00	1.405447e+04	-7.614436e+03	0.000000e+00	1.378616e+04	-7.311337e+03	0.000000e+00
					1.449798e+04	-7.361653e+03	0.000000e+00	1.450249e+04	-7.635568e+03	0.000000e+00	1.431253e+04	-7.811639e+03	0.000000e+00	1.414808e+04	-7.968868e+03	0.000000e+00
					1.487244e+04	-7.758708e+03	0.000000e+00	1.460617e+04	-7.765267e+03	0.000000e+00	1.424603e+04	-8.234521e+03	0.000000e+00	1.448709e+04	-7.900806e+03	0.000000e+00
					1.464000e+04	-7.940785e+03	0.000000e+00	1.490539e+04	-7.933881e+03	0.000000e+00	1.510985e+04	-7.219671e+03	0.000000e+00	1.487015e+04	-7.309580e+03	0.000000e+00
					1.490000e+04	-6.991785e+03	0.000000e+00	1.434632e+04	-7.340104e+03	0.000000e+00	1.461365e+04	-7.391157e+03	0.000000e+00	1.466017e+04	-7.113627e+03	0.000000e+00
					1.516388e+04	-7.108649e+03	0.000000e+00	1.519896e+04	-6.954921e+03	0.000000e+00	1.522463e+04	-6.802707e+03	0.000000e+00	1.504350e+04	-6.973318e+03	0.000000e+00
[...]
			<PointData Scalars="bulk fluid density">
				<DataArray type="Float64" Name="bulk fluid density" NumberOfComponents="1" format="ascii">
					2.039565e+02	5.332751e+02	9.532728e+02	9.828316e+02	5.953945e+02	9.885900e+02	8.768006e+02	2.043318e+02
					3.279854e+02	4.095706e+02	4.058172e+02	4.005122e+02	3.903884e+02	3.966878e+02	3.874066e+02	3.652254e+02	1.000002e+03
					4.507151e+02	9.794149e+02	9.993925e+02	9.501199e+02	9.452271e+02	3.226245e+02	9.664834e+02	9.886281e+02	9.998882e+02
					2.818070e+02	9.996268e+02	9.995439e+02	9.955677e+02	5.029768e+02	5.459117e+02	1.598591e+02	9.998758e+02	9.998133e+02
					9.908467e+02	9.883231e+02	9.937599e+02	1.000528e+03	5.478232e+02	6.205363e+02	9.708230e+02	1.000199e+03	9.992832e+02
					9.973098e+02	6.254099e+02	9.995523e+02	4.147570e+02	9.947738e+02	9.926458e+02	9.676375e+02	4.126350e+02	6.731976e+02
					9.997596e+02	9.998922e+02	5.884768e+02	9.991539e+02	1.000334e+03	9.999269e+02	6.951246e+02	4.370995e+02	9.999448e+02
					9.998661e+02	9.971538e+02	1.000067e+03	9.994440e+02	9.998557e+02	9.995912e+02	4.998229e+02	6.068920e+02	6.556232e+02
					5.405079e+02	6.258005e+02	5.059576e+02	3.990019e+02	3.829240e+02	3.918207e+02	3.913551e+02	3.976258e+02	3.911039e+02
					4.422708e+02	4.432673e+02	2.633866e+02	4.446622e+02	4.427951e+02	4.490917e+02	4.355706e+02	4.337719e+02	4.999443e+02
					9.996952e+02	4.033994e+02	5.803337e+02	5.377109e+02	5.626150e+02	3.185110e+02	9.993460e+02	9.997812e+02	9.997635e+02
					9.998862e+02	9.950746e+02	3.591939e+02	3.505908e+02	3.401388e+02	6.353064e+02	3.655406e+02	4.154833e+02	3.646396e+02
					3.542487e+02	3.565718e+02	3.434221e+02	3.190682e+02	3.121442e+02	3.206321e+02	3.278918e+02	3.505415e+02	3.423256e+02
					4.924351e+02	3.332212e+02	2.647872e+02	2.810248e+02	5.716304e+02	9.998387e+02	5.262239e+02	4.104968e+02	4.180163e+02
					4.142082e+02	4.239458e+02	4.076464e+02	4.033963e+02	4.172075e+02	4.442033e+02	4.392532e+02	3.348331e+02	4.579061e+02
					4.611714e+02	4.623408e+02	3.412816e+02	3.581411e+02	3.499768e+02	5.292294e+02	5.530847e+02	5.600954e+02	5.216484e+02
					4.201140e+02	4.494509e+02	4.398300e+02	3.180464e+02	4.416688e+02	4.487202e+02	4.427510e+02	4.275193e+02	4.353835e+02
					2.865040e+02	3.962605e+02	3.823556e+02	3.896302e+02	3.900680e+02	4.228991e+02	4.098658e+02	4.165206e+02	9.928922e+02
					1.000006e+03	9.997417e+02	9.995219e+02	5.701546e+02	3.400421e+02	1.895770e+02	6.544420e+02	6.209268e+02	8.458908e+02
					6.701094e+02	4.343937e+02	6.876854e+02	6.972479e+02	2.385716e+02	3.481384e+02	1.663974e+02	2.051701e+02	2.107211e+02
					3.756896e+02	4.601318e+02	4.425761e+02	4.624248e+02	9.994487e+02	5.050592e+02	5.510937e+02	9.996801e+02	5.479152e+02
					6.327713e+02	6.384817e+02	3.874718e+02	5.798698e+02	5.695711e+02	4.208228e+02	4.509052e+02	3.830070e+02	3.907468e+02
					3.915085e+02	3.956480e+02	3.550898e+02	3.462677e+02	3.641004e+02	3.552217e+02	3.640057e+02	3.643519e+02	3.458933e+02
					3.473344e+02	3.822747e+02	3.533603e+02	3.822686e+02	3.839587e+02	4.075591e+02	4.346877e+02	4.486644e+02	4.480980e+02
					4.364838e+02	4.384224e+02	4.487624e+02	4.551283e+02	4.595504e+02	4.447911e+02	4.517783e+02	4.430552e+02	4.568169e+02
					4.511532e+02	3.769845e+02	4.320377e+02	4.363489e+02	4.240862e+02	4.376521e+02	4.395088e+02	4.287259e+02	4.279689e+02
					4.224312e+02	4.160541e+02	4.234540e+02	3.945746e+02	3.962338e+02	3.963317e+02	4.021024e+02	4.084367e+02	9.993985e+02
					9.998590e+02	9.993416e+02	9.995528e+02	9.998124e+02	9.995309e+02	9.996548e+02	1.000035e+03	9.981005e+02	9.937971e+02
					4.439445e+02	5.206727e+02	5.617661e+02	5.715834e+02	5.781706e+02	5.653694e+02	6.473003e+02	4.588304e+02	4.823240e+02
					5.745395e+02	5.294295e+02	5.905642e+02	5.268587e+02	6.040427e+02	5.472852e+02	6.318517e+02	5.216065e+02	6.443462e+02
					5.777254e+02	5.656066e+02	5.350571e+02	4.706042e+02	5.247137e+02	5.732140e+02	6.400217e+02	4.632071e+02	5.315972e+02
					5.359317e+02	5.810496e+02	3.790601e+02	5.957183e+02	5.429922e+02	4.772475e+02	5.814593e+02	9.995833e+02	9.997517e+02
					9.998001e+02	5.213619e+02	5.008998e+02	4.931624e+02	6.177810e+02	5.517185e+02	5.579631e+02	5.529485e+02	6.341240e+02
					6.100889e+02	8.148812e+02	5.350206e+02	5.934601e+02	7.422307e+02	3.340031e+02	3.254458e+02	4.563142e+02	4.437500e+02
					4.558053e+02	4.563058e+02	4.585562e+02	3.762163e+02	3.078134e+02	4.148040e+02	4.115865e+02	3.571831e+02	3.673980e+02
					3.769588e+02	3.670458e+02	3.976618e+02	4.052896e+02	3.927750e+02	3.769964e+02	3.741937e+02	3.727572e+02	3.634142e+02
					3.835320e+02	3.984649e+02	4.071059e+02	3.988297e+02	1.739098e+02	1.562349e+02	2.537079e+02	3.010662e+02	2.402539e+02
					3.222126e+02	2.374709e+02	2.391223e+02	2.768619e+02	2.236259e+02	2.436021e+02	2.991900e+02	2.193057e+02	7.320106e+02
					2.532592e+02	2.276977e+02	4.032054e+02	6.209961e+02	5.271699e+02	4.559709e+02	7.934582e+02	8.256801e+02	3.709548e+02
					6.564740e+02	5.580665e+02	7.450717e+02	5.652421e+02	4.940842e+02	3.555372e+02	6.366363e+02	6.405864e+02	3.759024e+02
					1.701814e+02	2.039792e+02	3.465473e+02	2.660986e+02	4.093210e+02	5.659604e+02	5.696248e+02	5.544534e+02	5.667379e+02
					5.594062e+02	4.317427e+02	5.126058e+02	5.551128e+02	9.997323e+02	9.996524e+02	9.998353e+02	9.998195e+02	9.987599e+02
					9.532785e+02	9.861018e+02	9.775938e+02	9.659871e+02	9.749402e+02	4.580291e+02	4.216888e+02	3.822959e+02	3.796369e+02
					3.585739e+02	3.684900e+02	3.859272e+02	3.715219e+02	3.634225e+02	3.979331e+02	3.974276e+02	4.033623e+02	4.050492e+02
					4.085685e+02	3.822288e+02	3.827083e+02	3.621835e+02	3.626366e+02	3.725842e+02	3.622193e+02	3.950888e+02	3.980749e+02
					4.103178e+02	4.108601e+02	3.983339e+02	4.030223e+02	4.045886e+02	4.108299e+02	2.082487e+02	1.820708e+02	1.900307e+02
					2.017078e+02	3.873960e+02	3.238372e+02	3.778462e+02	1.851012e+02	2.140346e+02	3.137076e+02	2.464534e+02	2.587762e+02
					2.971500e+02	3.146578e+02	2.019159e+02	2.032912e+02	3.398399e+02	3.698666e+02	3.577195e+02	1.614645e+02	4.286749e+02
					4.449309e+02	4.182396e+02	4.107305e+02	4.096994e+02	2.980745e+02	3.584753e+02	2.216189e+02	4.042242e+02	3.973235e+02
					4.303420e+02	4.466242e+02	3.851490e+02	3.422025e+02	3.630053e+02	3.351254e+02	3.914505e+02	3.980592e+02	3.901772e+02
					3.726775e+02	3.833622e+02	3.989773e+02	3.911282e+02	3.998948e+02	3.825442e+02	3.844933e+02	3.552291e+02	4.122214e+02
					4.319012e+02	5.713236e+02	5.531259e+02	4.816321e+02	9.998021e+02	4.045058e+02	3.925411e+02	4.028998e+02	4.064638e+02
					3.908485e+02	3.756889e+02	3.973568e+02	4.114001e+02	2.525980e+02	4.289797e+02	4.366341e+02	4.241830e+02	4.273791e+02
					4.221975e+02	4.170247e+02	4.200280e+02	4.137171e+02	3.984571e+02	4.106972e+02	4.067263e+02	4.159971e+02	4.218500e+02
					4.273675e+02	4.135812e+02	4.363933e+02	4.332456e+02	4.249930e+02	3.252697e+02	3.262632e+02	3.374458e+02	3.433000e+02
					3.336636e+02	3.831887e+02	3.854643e+02	3.733539e+02	3.736116e+02	3.638653e+02	3.696056e+02	3.343952e+02	3.193035e+02
					2.597177e+02	2.536012e+02	5.716664e+02	3.880201e+02	5.712190e+02	2.390850e+02	5.579974e+02	2.439672e+02	5.767604e+02
					3.411409e+02	3.304237e+02	3.219675e+02	3.320175e+02	3.409437e+02	3.295554e+02	3.094508e+02	3.593778e+02	3.512362e+02
					3.583479e+02	3.661657e+02	3.725066e+02	3.669795e+02	3.257838e+02	3.033402e+02	3.566641e+02	3.400993e+02	3.129185e+02
					3.190443e+02	3.415840e+02	5.097294e+02	4.962663e+02	3.368488e+02	3.456614e+02	3.399809e+02	3.292033e+02	3.621829e+02
					3.719247e+02	3.660456e+02	3.873570e+02	3.730869e+02	3.806706e+02	3.669580e+02	3.851704e+02	3.777539e+02	3.760491e+02
					5.587435e+02	5.361806e+02	5.280358e+02	5.521454e+02	5.204580e+02	5.560427e+02	5.061251e+02	5.355454e+02	1.942422e+02
					3.967279e+02	3.650981e+02	2.011263e+02	3.969806e+02	3.448603e+02	3.886684e+02	2.710004e+02	4.124091e+02	4.239280e+02
					4.297071e+02	4.358570e+02	4.242674e+02	4.354567e+02	4.465106e+02	4.354093e+02	4.476841e+02	4.229690e+02	4.167591e+02
					4.239317e+02	4.173472e+02	4.113134e+02	4.103820e+02	4.236955e+02	4.473735e+02	4.593839e+02	4.542500e+02	4.478873e+02
					4.552735e+02	4.553766e+02	4.510253e+02	4.294659e+02	4.231520e+02	4.271832e+02	4.308183e+02	4.364243e+02	4.588799e+02
					4.532488e+02	4.617048e+02	4.610411e+02	4.571887e+02	3.211611e+02	4.336108e+02	4.535756e+02	3.428723e+02	4.559619e+02
					4.647719e+02	4.633444e+02	4.642974e+02	4.634268e+02	4.531710e+02	4.477785e+02	4.611120e+02	4.591096e+02	4.463388e+02
					4.578047e+02	4.491756e+02	4.455917e+02	4.472392e+02	4.255504e+02	4.346677e+02	4.318758e+02	4.274253e+02	4.244494e+02
					4.316958e+02	4.361781e+02	4.116661e+02	3.976640e+02	4.035664e+02	4.146402e+02	3.977804e+02	4.265075e+02	3.479109e+02
					4.425803e+02	4.436406e+02	4.438869e+02	3.617769e+02	3.532881e+02	3.196306e+02	4.173273e+02	4.188655e+02	4.111292e+02
					4.232669e+02	4.221881e+02	2.274356e+02	4.034772e+02	3.930193e+02	4.361582e+02	4.199028e+02	4.157967e+02	3.760024e+02
					4.566534e+02	4.440735e+02	4.553101e+02	4.503950e+02	4.561128e+02	4.434210e+02	4.308934e+02	4.359380e+02	4.247020e+02
					4.276730e+02	4.347473e+02	4.230554e+02	4.311937e+02	4.340066e+02	3.130015e+02	5.296204e+02	5.554660e+02	6.592545e+02
					4.898550e+02	9.996980e+02	8.030813e+02	9.994610e+02	9.997343e+02	9.995632e+02	9.995598e+02	9.994649e+02	1.004201e+03
					1.001915e+03	1.002389e+03	1.002699e+03	1.003841e+03	1.005214e+03	1.005068e+03	1.004511e+03	5.273098e+02	5.446053e+02
					5.610631e+02	5.656507e+02	9.996229e+02	1.003701e+03	1.005432e+03	1.000908e+03	9.998840e+02	5.462175e+02	5.636054e+02
					5.621302e+02	6.513281e+02	5.493197e+02	5.537459e+02	5.411546e+02	6.164606e+02	5.977364e+02	6.421887e+02	5.402806e+02
					5.675655e+02	5.491977e+02	5.614710e+02	5.724141e+02	5.603199e+02	5.226396e+02	4.969467e+02	3.886132e+02	3.401637e+02
					3.323267e+02	2.536359e+02	2.986519e+02	3.170549e+02	3.393708e+02	5.053543e+02	5.349835e+02	5.318251e+02	5.147149e+02
					5.534321e+02	5.509277e+02	5.204957e+02	5.436075e+02	5.274933e+02	5.428119e+02	5.074869e+02	5.445370e+02	5.257928e+02
					5.390830e+02	5.517518e+02	5.591961e+02	5.445300e+02	5.549116e+02	5.286159e+02	4.829722e+02	5.121429e+02	5.039911e+02
					4.822396e+02	5.089644e+02	3.394801e+02	3.245578e+02	3.828588e+02	3.629191e+02	3.434809e+02	3.271312e+02	5.388019e+02
					4.987712e+02	5.522123e+02	5.203814e+02	5.057184e+02	3.445798e+02	3.529636e+02	3.509800e+02	3.443058e+02	3.630092e+02
					3.838092e+02	3.359555e+02	3.439889e+02	3.251215e+02	3.353364e+02	4.922711e+02	3.281666e+02	3.437409e+02	3.270638e+02
					3.448040e+02	3.359943e+02	3.281923e+02	3.323057e+02	4.814995e+02	3.154091e+02	4.868710e+02	4.826436e+02	5.058526e+02
					3.153016e+02	3.151374e+02	3.208446e+02	4.750598e+02	3.381618e+02	3.468324e+02	3.430732e+02	3.378773e+02	3.436748e+02
					3.668211e+02	3.636264e+02	3.832189e+02	3.950088e+02	5.327380e+02	2.708894e+02	3.983268e+02	3.138340e+02	2.825989e+02
					3.484345e+02	3.612234e+02	3.475156e+02	3.455010e+02	3.568174e+02	2.603326e+02	3.076075e+02	3.305248e+02	2.744636e+02
					3.322572e+02	2.688167e+02	2.880482e+02	2.911389e+02	9.991362e+02	9.974153e+02	1.000147e+03	9.972320e+02	9.964872e+02
					9.965130e+02	9.997654e+02	9.993597e+02	9.996087e+02	9.984897e+02	9.946124e+02	9.953458e+02	9.994907e+02	9.995403e+02
					9.991690e+02	9.996884e+02	9.995730e+02	5.266368e+02	5.042151e+02	4.841828e+02	5.517414e+02	3.314452e+02	5.391233e+02
					5.167854e+02	5.145349e+02	5.396358e+02	3.343478e+02	3.402618e+02	3.286328e+02	3.355744e+02	3.296321e+02	3.988364e+02
					3.226077e+02	2.752928e+02	3.301584e+02	5.258073e+02	6.147359e+02	5.351877e+02	6.254263e+02	5.307892e+02	4.166224e+02
					6.650123e+02	4.307032e+02	4.147020e+02	5.436449e+02	5.626554e+02	5.617397e+02	9.994585e+02	4.526497e+02	4.573067e+02
					4.450720e+02	4.428947e+02	4.400526e+02	4.478018e+02	4.408548e+02	4.350740e+02	4.632897e+02	4.388338e+02	4.357012e+02
					4.489667e+02	4.504179e+02	4.422888e+02	4.411245e+02	2.390012e+02	4.475037e+02	4.331795e+02	4.257229e+02	4.378028e+02
					8.660317e+02	8.693754e+02	9.090335e+02	8.397344e+02	7.656224e+02	8.662021e+02	7.970438e+02	7.695350e+02	5.443311e+02
					3.868530e+02	3.559643e+02	3.959008e+02	8.518793e+02	8.294929e+02	8.052628e+02	7.886272e+02	7.468249e+02	6.802226e+02
					7.256284e+02	7.414649e+02	3.286662e+02	3.371648e+02	2.647302e+02	5.077576e+02	4.691556e+02	5.576009e+02	4.221244e+02
					3.993317e+02	6.436983e+02	6.644042e+02	7.574170e+02	4.956066e+02	7.450385e+02	8.336201e+02	8.988511e+02	8.211599e+02
					4.015059e+02	4.093620e+02	3.965344e+02	3.990983e+02	4.035532e+02	8.325955e+02	8.019417e+02	8.068844e+02	1.002450e+03
					1.002629e+03	1.003653e+03	1.002678e+03	1.000874e+03	9.985230e+02	9.996335e+02	1.002432e+03	9.493700e+02	9.486920e+02
					9.634526e+02	9.626782e+02	8.964282e+02	8.755042e+02	9.214811e+02	9.064826e+02	1.001037e+03	9.975629e+02	9.965318e+02
					9.993681e+02	1.004673e+03	9.193341e+02	9.208896e+02	8.815106e+02	1.000134e+03	9.997121e+02	1.000942e+03	8.761947e+02
					8.924029e+02	8.689562e+02	5.604479e+02	8.141932e+02	5.109428e+02	9.563396e+02	9.807512e+02	9.503904e+02	6.857833e+02
					6.299916e+02	6.240497e+02	5.562020e+02	2.656920e+02	2.714805e+02	2.708026e+02	2.900621e+02	2.788507e+02	2.764687e+02
					4.058270e+02	3.717399e+02	3.895396e+02	3.913144e+02	2.692808e+02	2.641831e+02	2.933523e+02	2.964426e+02	2.202814e+02
					9.496534e+02	9.450927e+02	9.295694e+02	9.650356e+02	7.578818e+02	8.152811e+02	7.543946e+02	8.198969e+02	7.836882e+02
					7.296613e+02	5.374997e+02	2.888955e+02	3.607351e+02	5.786884e+02	8.638327e+02	8.345529e+02	8.353273e+02	8.751742e+02
					9.042161e+02	8.775094e+02	4.498743e+02	4.059657e+02	6.897532e+02	6.544013e+02	7.544302e+02	6.935023e+02	8.455378e+02
					8.964714e+02	7.628382e+02	7.771112e+02	6.940781e+02	9.283888e+02	3.048480e+02	5.433830e+02	3.818754e+02	7.523352e+02
					7.712088e+02	2.963862e+02	2.835095e+02	3.141716e+02	2.775642e+02	3.592857e+02	3.942081e+02	3.880373e+02	2.871997e+02
					2.899902e+02	2.403062e+02	2.479787e+02	2.795774e+02	3.031080e+02	2.738702e+02	3.926631e+02	3.758549e+02	4.319649e+02
					4.426044e+02	4.390578e+02	4.550319e+02	4.282198e+02	2.780868e+02	4.359951e+02	2.799839e+02	4.397607e+02	4.413312e+02
					4.514663e+02	3.137551e+02	2.746563e+02	2.801815e+02	2.644407e+02	2.722495e+02	2.766117e+02	2.945682e+02	3.978343e+02
					3.745782e+02	3.512635e+02	3.572834e+02	3.636035e+02	4.029092e+02	3.975607e+02	4.223239e+02	4.016080e+02	3.988460e+02
					3.718900e+02	9.849009e+02	1.001776e+03	9.984988e+02	1.002731e+03	8.426345e+02	7.767600e+02	7.601525e+02	8.287912e+02
					9.996140e+02	1.000770e+03	9.995696e+02	9.630937e+02	9.983967e+02	9.225006e+02	9.427926e+02	9.853448e+02	9.465427e+02
					9.604446e+02	9.347579e+02	9.877250e+02	9.817447e+02	9.902734e+02	1.000722e+03	9.986500e+02	1.000770e+03	1.002544e+03
					5.568118e+02	5.641625e+02	5.603521e+02	7.483661e+02	8.413080e+02	8.678842e+02	9.194603e+02	9.096697e+02	8.580479e+02
					2.854065e+02	3.337443e+02	5.275451e+02	5.019182e+02	9.567700e+02	9.075388e+02	8.419688e+02	8.531123e+02	1.000322e+03
					9.106653e+02	9.581015e+02	8.784581e+02	8.684388e+02	9.567436e+02	9.363880e+02	9.359296e+02	9.668700e+02	9.775442e+02
					9.849425e+02	9.754188e+02	9.759955e+02	9.942139e+02	9.786533e+02	9.850229e+02	1.003160e+03	1.001353e+03	9.980904e+02
					9.704558e+02	9.611968e+02	9.978784e+02	9.974630e+02	9.702094e+02	9.848235e+02	9.763870e+02	9.078679e+02	8.793607e+02
					9.094259e+02	9.325834e+02	8.034362e+02	7.708011e+02	7.235706e+02	7.637951e+02	8.424460e+02	8.807036e+02	8.858150e+02
					8.551969e+02	9.907662e+02	9.722971e+02	9.789097e+02	9.668583e+02	1.001976e+03	1.000688e+03	7.933868e+02	8.169367e+02
					9.365221e+02	9.695150e+02	9.603135e+02	9.999586e+02	1.001193e+03	9.949574e+02	9.849466e+02	9.364264e+02	9.283232e+02
					9.497657e+02	9.444233e+02	9.248046e+02	9.407448e+02	8.931254e+02	9.440319e+02	9.202273e+02	9.419423e+02	1.000950e+03
					1.001880e+03	1.002953e+03	1.002560e+03	9.977734e+02	9.940480e+02	9.999460e+02	1.000427e+03	1.002183e+03	1.003875e+03
					1.004555e+03	9.866614e+02	9.733452e+02	9.956554e+02	9.837957e+02	9.937272e+02	1.000391e+03	1.002006e+03	9.465286e+02
					8.227828e+02	7.991635e+02	9.115345e+02	5.931994e+02	5.308553e+02	6.886532e+02	6.337779e+02	5.409338e+02	3.419579e+02
					7.234322e+02	6.357615e+02	6.761392e+02	7.265985e+02	5.494735e+02	3.983305e+02	4.959454e+02	2.724456e+02	3.193302e+02
					2.820640e+02	3.933749e+02	2.611502e+02	3.411083e+02	3.333117e+02	2.803821e+02	2.932357e+02	4.191634e+02	2.463735e+02
					5.316019e+02	6.737134e+02	7.634613e+02	6.831776e+02	6.544531e+02	7.972909e+02	5.916139e+02	8.157464e+02	7.455422e+02
					9.083528e+02	9.381584e+02	8.237900e+02	8.863222e+02	8.508243e+02	8.555562e+02	8.487839e+02	8.444387e+02	8.311709e+02
					6.165390e+02	8.172111e+02	8.072574e+02	7.929384e+02	8.157159e+02	7.755605e+02	6.992187e+02	9.372758e+02	9.625444e+02
					8.787474e+02	9.275188e+02	8.303258e+02	8.720548e+02	8.242822e+02	8.448962e+02	8.897784e+02	9.927180e+02	9.986699e+02
					9.956644e+02	9.963093e+02	1.000630e+03	9.954301e+02	1.000796e+03	9.905751e+02	1.000942e+03	9.995701e+02	9.977403e+02
					9.994727e+02	1.001454e+03	1.000602e+03	1.000644e+03	9.995840e+02	1.003175e+03	1.001152e+03	1.000242e+03	1.003014e+03
					1.004930e+03	1.004272e+03	1.003705e+03	1.003046e+03	1.002706e+03	1.002557e+03	1.003149e+03	9.666872e+02	9.937310e+02
					1.003042e+03	1.002828e+03	1.003269e+03	1.003323e+03	1.002886e+03	1.002192e+03	1.002666e+03	1.003310e+03	9.450994e+02
					8.988470e+02	9.019504e+02	9.088980e+02	9.372647e+02	9.473824e+02	9.044763e+02	9.435521e+02	9.666356e+02	9.323117e+02
					8.987168e+02	9.446419e+02	9.297173e+02	9.714701e+02	9.565870e+02	9.243083e+02	9.700208e+02	9.981580e+02	9.566264e+02
					9.652823e+02	1.002383e+03	1.000500e+03	1.001799e+03	1.000810e+03	1.000800e+03	1.000151e+03	9.879354e+02	9.090581e+02
					8.985660e+02	9.171763e+02	9.243802e+02	9.078016e+02	8.113942e+02	8.658300e+02	8.469923e+02	8.124025e+02	8.495302e+02
					8.088155e+02	9.490400e+02	9.163810e+02	9.419963e+02	9.126144e+02	9.379577e+02	8.965992e+02	9.453012e+02	9.274678e+02
					9.272603e+02	9.269118e+02	9.098413e+02	8.737745e+02	8.539959e+02	8.833361e+02	8.288133e+02	8.863126e+02	8.849993e+02
					9.248987e+02	9.066431e+02	9.085486e+02	8.926931e+02	9.175755e+02	7.595573e+02	8.145525e+02	7.868204e+02	7.644793e+02
					6.522205e+02	7.406568e+02	7.123843e+02	8.016389e+02	8.728906e+02	8.194275e+02	8.768933e+02	8.441459e+02	8.304985e+02
					8.880622e+02	9.598575e+02	9.381809e+02	9.615333e+02	9.218801e+02	9.857700e+02	1.002818e+03	1.003086e+03	1.003134e+03
					1.002829e+03	1.003557e+03	1.000669e+03	9.987122e+02	1.002489e+03	1.000980e+03	9.997840e+02	1.000741e+03	9.921722e+02
					9.052830e+02	9.640841e+02	8.280075e+02	8.832800e+02	8.325262e+02	8.480475e+02	7.925257e+02	7.405540e+02	6.883759e+02
					7.132867e+02	7.523122e+02	8.044346e+02	7.277365e+02	8.198685e+02	9.696765e+02	9.499996e+02	9.349611e+02	8.813778e+02
					9.016972e+02	9.805077e+02	9.600372e+02	8.786765e+02	8.514937e+02	8.135287e+02	9.572438e+02	9.069992e+02	9.393609e+02
					9.535347e+02	9.145491e+02	9.303478e+02	9.823447e+02	9.940241e+02	9.970899e+02	9.932381e+02	9.840495e+02	9.885588e+02
					9.944666e+02	9.938412e+02	9.879322e+02	9.553169e+02	9.349442e+02	9.193540e+02	9.466698e+02	9.609655e+02	9.252193e+02
					9.411347e+02	1.000721e+03	1.002508e+03	1.001732e+03	9.695283e+02	9.306541e+02	9.258113e+02	1.000454e+03	1.002780e+03
					9.901771e+02	9.490468e+02	9.982048e+02	9.970477e+02	9.761939e+02	1.002568e+03	1.003238e+03	1.002376e+03	9.984951e+02
					1.000052e+03	1.002839e+03	1.002806e+03	1.002463e+03	9.734324e+02	9.864366e+02	9.767443e+02	9.814840e+02	9.911151e+02
					9.222717e+02	9.787168e+02	9.903926e+02	9.824998e+02	9.564788e+02	9.861050e+02	9.896812e+02	9.285412e+02	9.486538e+02
					8.929897e+02	9.666669e+02	9.802331e+02	9.739331e+02	9.098598e+02	9.404574e+02	8.516583e+02	9.448493e+02	9.936931e+02