<?xml version="1.0"?>

<!--
CSMP_Simulation
-->

<VTKFile type="UnstructuredGrid" version="1.0" byte_order="LittleEndian">
	<UnstructuredGrid>
		<Piece NumberOfPoints="2922" NumberOfCells="5619">
			<Points>
				<DataArray type="Float64" Name="Position" NumberOfComponents="3" format="ascii">
					1.062348e+04	-6.219427e+03	0.000000e+00	1.328123e+04	-3.388001e+03	0.000000e+00	6.533000e+03	-2.871000e+03	0.000000e+00	8.993999e+03	3.450022e+02	0.000000e+00
					6.434000e+03	-6.251000e+03	0.000000e+00	6.415000e+03	-1.312000e+03	0.000000e+00	8.891000e+03	-1.610000e+02	0.000000e+00	1.593372e+04	-6.223812e+03	0.000000e+00
					1.243124e+04	-5.182061e+03	0.000000e+00	1.180818e+04	-6.661451e+03	0.000000e+00	1.199040e+04	-6.569837e+03	0.000000e+00	1.186573e+04	-6.450233e+03	0.000000e+00
					1.224666e+04	-6.222517e+03	0.000000e+00	1.208180e+04	-6.360720e+03	0.000000e+00	1.135568e+04	-6.216921e+03	0.000000e+00	1.177466e+04	-5.800292e+03	0.000000e+00
					1.484109e+03	2.369937e+02	0.000000e+00	1.048845e+04	-4.576829e+03	0.000000e+00	5.088007e+03	2.164612e+02	0.000000e+00	1.616065e+04	6.885872e+02	0.000000e+00
					5.856588e+03	2.844799e+02	0.000000e+00	5.964146e+03	2.322470e+02	0.000000e+00	1.285384e+04	-8.473227e+03	0.000000e+00	6.554646e+03	2.976259e+02	0.000000e+00
					6.220259e+03	3.810972e+02	0.000000e+00	2.455667e+03	2.604214e+02	0.000000e+00	1.185441e+04	-8.594387e+03	0.000000e+00	8.953729e+02	2.424411e+02	0.000000e+00
					1.642061e+04	5.389531e+02	0.000000e+00	9.022812e+03	5.486281e+02	0.000000e+00	1.072547e+04	-4.265213e+03	0.000000e+00	1.596156e+04	-4.568462e+03	0.000000e+00
					1.049681e+04	-6.339904e+03	0.000000e+00	1.229884e+04	9.679014e+02	0.000000e+00	1.346081e+04	9.303555e+02	0.000000e+00	7.674576e+03	2.576962e+02	0.000000e+00
					8.121128e+03	2.577928e+02	0.000000e+00	8.390419e+03	2.530714e+02	0.000000e+00	1.759058e+04	3.107264e+02	0.000000e+00	1.283469e+04	-3.190105e+03	0.000000e+00
					1.310544e+04	-3.163050e+03	0.000000e+00	6.218396e+03	2.847346e+02	0.000000e+00	1.964998e+04	3.306567e+02	0.000000e+00	1.089832e+04	6.517557e+02	0.000000e+00
					9.482042e+03	5.002750e+02	0.000000e+00	1.461891e+04	-3.601876e+03	0.000000e+00	1.694475e+04	2.822433e+02	0.000000e+00	1.223129e+04	-8.439639e+03	0.000000e+00
					7.092101e+03	3.133630e+02	0.000000e+00	7.447673e+03	2.954910e+02	0.000000e+00	5.479449e+03	3.927924e+02	0.000000e+00	1.430834e+04	-8.440884e+03	0.000000e+00
					1.346187e+04	-3.101654e+03	0.000000e+00	1.466219e+04	5.912805e+02	0.000000e+00	1.431424e+04	6.995984e+02	0.000000e+00	1.198158e+04	-3.600157e+03	0.000000e+00
					1.519729e+04	6.008027e+02	0.000000e+00	1.732254e+04	2.914492e+02	0.000000e+00	1.847268e+04	5.552377e+02	0.000000e+00	1.373014e+04	-3.092539e+03	0.000000e+00
					1.598609e+04	-4.803680e+03	0.000000e+00	1.811668e+03	2.957238e+02	0.000000e+00	2.068111e+03	3.301681e+02	0.000000e+00	3.593477e+02	6.241832e-01	0.000000e+00
					1.315684e+04	9.290093e+02	0.000000e+00	9.757773e+03	6.136685e+02	0.000000e+00	1.013994e+04	6.394650e+02	0.000000e+00	9.949611e+03	7.276424e+02	0.000000e+00
					1.479179e+04	-3.977888e+03	0.000000e+00	1.474764e+04	-3.691732e+03	0.000000e+00	1.224233e+04	-3.775151e+03	0.000000e+00	1.235721e+04	-3.992361e+03	0.000000e+00
					1.239488e+04	-3.732875e+03	0.000000e+00	1.247959e+04	-3.889221e+03	0.000000e+00	1.489970e+04	-6.402044e+03	0.000000e+00	1.471371e+04	-6.063480e+03	0.000000e+00
					1.503558e+04	-6.243497e+03	0.000000e+00	1.463383e+04	-6.231790e+03	0.000000e+00	1.359516e+04	-6.370837e+03	0.000000e+00	1.336635e+04	-6.229341e+03	0.000000e+00
					1.486979e+04	-7.470250e+03	0.000000e+00	1.455711e+04	-7.489929e+03	0.000000e+00	1.120299e+04	-4.942350e+03	0.000000e+00	1.218357e+04	-7.531530e+03	0.000000e+00
					1.251446e+04	-7.480192e+03	0.000000e+00	1.240108e+04	-7.647510e+03	0.000000e+00	1.239322e+04	-7.293615e+03	0.000000e+00	1.368325e+04	-7.242141e+03	0.000000e+00
					1.217897e+04	-5.028812e+03	0.000000e+00	1.378964e+04	8.854108e+02	0.000000e+00	1.351945e+04	-3.856343e+03	0.000000e+00	1.333151e+04	-3.674419e+03	0.000000e+00
					1.350782e+04	-3.520236e+03	0.000000e+00	1.479244e+04	-4.909493e+03	0.000000e+00	1.380050e+04	-4.989557e+03	0.000000e+00	3.084262e+03	3.746820e+02	0.000000e+00
					3.006144e+03	2.572346e+02	0.000000e+00	1.252005e+03	2.691829e+02	0.000000e+00	1.642126e+03	2.829086e+02	0.000000e+00	8.235090e+03	4.169793e+02	0.000000e+00
					1.537108e+04	-5.728762e+03	0.000000e+00	1.550100e+04	-5.598568e+03	0.000000e+00	1.543359e+04	-5.440257e+03	0.000000e+00	1.516251e+04	-4.367050e+03	0.000000e+00
					1.542543e+04	-4.626431e+03	0.000000e+00	1.547978e+04	-4.435709e+03	0.000000e+00	1.421355e+04	-5.774419e+03	0.000000e+00	1.398427e+04	-5.607986e+03	0.000000e+00
					1.433859e+04	-5.644592e+03	0.000000e+00	1.422646e+04	-5.431404e+03	0.000000e+00	1.278519e+04	-5.034132e+03	0.000000e+00	1.297347e+04	-4.888217e+03	0.000000e+00
					1.308886e+04	-5.058455e+03	0.000000e+00	1.295570e+04	-5.179625e+03	0.000000e+00	1.371210e+04	-5.548806e+03	0.000000e+00	1.306586e+04	-5.417419e+03	0.000000e+00
					1.398961e+04	-5.001093e+03	0.000000e+00	1.423737e+04	-5.238687e+03	0.000000e+00	1.553662e+04	-5.035070e+03	0.000000e+00	1.541510e+04	-5.176839e+03	0.000000e+00
					1.433199e+04	-4.490070e+03	0.000000e+00	1.772795e+04	4.701005e+02	0.000000e+00	1.301714e+04	-3.340203e+03	0.000000e+00	1.291928e+04	-6.673458e+03	0.000000e+00
					1.305404e+04	-6.847013e+03	0.000000e+00	1.275393e+04	-6.763001e+03	0.000000e+00	1.299225e+04	-6.992535e+03	0.000000e+00	1.111766e+04	-6.671729e+03	0.000000e+00
					1.100675e+04	-6.816450e+03	0.000000e+00	1.117046e+04	-6.969377e+03	0.000000e+00	1.205000e+04	-8.078535e+03	0.000000e+00	1.184148e+04	-7.859306e+03	0.000000e+00
					1.196430e+04	-8.231484e+03	0.000000e+00	1.298170e+04	-7.885249e+03	0.000000e+00	1.295062e+04	-8.221395e+03	0.000000e+00	1.309178e+04	-8.017537e+03	0.000000e+00
					1.120470e+04	-5.453850e+03	0.000000e+00	1.115255e+04	-5.738876e+03	0.000000e+00	1.126426e+04	-5.604117e+03	0.000000e+00	1.184009e+04	-5.022972e+03	0.000000e+00
					1.172669e+04	-4.862486e+03	0.000000e+00	1.153323e+04	-4.959783e+03	0.000000e+00	1.175756e+04	-5.171477e+03	0.000000e+00	1.534244e+04	-6.934844e+03	0.000000e+00
					1.455437e+04	-8.098472e+03	0.000000e+00	1.476956e+04	-7.877258e+03	0.000000e+00	1.464624e+04	-8.340289e+03	0.000000e+00	1.404268e+04	-7.444684e+03	0.000000e+00
					1.421918e+04	-7.630822e+03	0.000000e+00	1.428388e+04	-7.472196e+03	0.000000e+00	1.526650e+04	-7.239097e+03	0.000000e+00	1.513630e+04	-7.368500e+03	0.000000e+00
					1.581589e+04	-5.652546e+03	0.000000e+00	1.296440e+04	-6.343040e+03	0.000000e+00	1.295470e+04	-6.059130e+03	0.000000e+00	1.303797e+04	-6.200013e+03	0.000000e+00
					1.273442e+04	-6.210589e+03	0.000000e+00	1.360396e+04	-6.962240e+03	0.000000e+00	1.362392e+04	-6.655270e+03	0.000000e+00	1.339020e+04	-6.812359e+03	0.000000e+00
					6.442692e+03	4.405175e+02	0.000000e+00	3.840145e+03	2.404374e+02	0.000000e+00	3.475756e+03	2.459832e+02	0.000000e+00	3.582548e+03	3.131050e+02	0.000000e+00
					1.179383e+04	-4.550717e+03	0.000000e+00	1.173986e+04	-5.484162e+03	0.000000e+00	1.062189e+04	-5.748233e+03	0.000000e+00	1.180024e+04	-3.998124e+03	0.000000e+00
					1.173389e+04	-3.844468e+03	0.000000e+00	1.197836e+04	-3.861204e+03	0.000000e+00	1.188099e+04	-3.736811e+03	0.000000e+00	1.137465e+04	-4.416604e+03	0.000000e+00
					1.124799e+04	-4.291994e+03	0.000000e+00	1.108948e+04	-4.439061e+03	0.000000e+00	1.120866e+04	-4.578218e+03	0.000000e+00	1.076080e+04	-6.185724e+03	0.000000e+00
					1.052158e+04	-6.171076e+03	0.000000e+00	1.061654e+04	-6.082875e+03	0.000000e+00	1.068627e+04	-6.344822e+03	0.000000e+00	1.547934e+04	-6.007495e+03	0.000000e+00
					1.239362e+04	-8.015408e+03	0.000000e+00	1.231714e+04	-8.236339e+03	0.000000e+00	1.259828e+04	-8.069267e+03	0.000000e+00	1.701531e+04	4.509240e+02	0.000000e+00
					1.277290e+04	-3.855596e+03	0.000000e+00	1.248342e+04	-4.291681e+03	0.000000e+00	1.951687e+04	4.566190e+02	0.000000e+00	1.409639e+04	-3.762137e+03	0.000000e+00
					1.395297e+04	-3.853813e+03	0.000000e+00	1.426096e+04	-3.882789e+03	0.000000e+00	1.412655e+04	-4.015160e+03	0.000000e+00	1.454529e+04	-4.454906e+03	0.000000e+00
					1.477335e+04	-4.577894e+03	0.000000e+00	1.473337e+04	-4.284850e+03	0.000000e+00	1.486818e+04	-4.392328e+03	0.000000e+00	1.182077e+04	-6.079763e+03	0.000000e+00
					1.161805e+04	-6.234353e+03	0.000000e+00	1.190807e+04	-6.249025e+03	0.000000e+00	1.174207e+04	-6.340720e+03	0.000000e+00	1.216930e+04	-5.632604e+03	0.000000e+00
					1.242431e+04	-5.486649e+03	0.000000e+00	1.241345e+04	-5.774949e+03	0.000000e+00	1.249642e+04	-5.631837e+03	0.000000e+00	1.225177e+04	-5.774741e+03	0.000000e+00
					1.257980e+04	-5.777980e+03	0.000000e+00	1.225809e+04	-5.482228e+03	0.000000e+00	1.256570e+04	-5.502870e+03	0.000000e+00	1.238428e+04	-6.062964e+03	0.000000e+00
					1.282796e+04	-5.599574e+03	0.000000e+00	1.196367e+04	-6.067125e+03	0.000000e+00	1.167268e+04	-6.097839e+03	0.000000e+00	1.277630e+04	-6.604007e+03	0.000000e+00
					1.252397e+04	-6.308287e+03	0.000000e+00	1.280518e+04	-6.343281e+03	0.000000e+00	1.265315e+04	-6.346342e+03	0.000000e+00	1.271475e+04	-6.477527e+03	0.000000e+00
					1.263261e+04	-6.625855e+03	0.000000e+00	1.667927e+04	4.741056e+02	0.000000e+00	1.612116e+04	5.619883e+02	0.000000e+00	1.487289e+04	5.672211e+02	0.000000e+00
					1.548362e+04	5.952377e+02	0.000000e+00	1.585212e+04	5.965489e+02	0.000000e+00	1.757404e+04	5.394732e+02	0.000000e+00	1.743589e+04	4.800519e+02	0.000000e+00
					1.795083e+04	4.435474e+02	0.000000e+00	1.049310e+04	6.378382e+02	0.000000e+00	9.219915e+03	4.816059e+02	0.000000e+00	1.511397e+04	-4.544577e+03	0.000000e+00
					1.494532e+04	-4.564542e+03	0.000000e+00	1.454020e+04	-4.749504e+03	0.000000e+00	1.486489e+04	-4.724778e+03	0.000000e+00	1.460243e+04	-4.599803e+03	0.000000e+00
					1.446230e+04	-4.653005e+03	0.000000e+00	1.489979e+04	-3.662624e+03	0.000000e+00	1.534625e+04	-4.286436e+03	0.000000e+00	1.518403e+04	-4.162332e+03	0.000000e+00
[...]
			<PointData Scalars="bulk fluid density">
				<DataArray type="Float64" Name="bulk fluid density" NumberOfComponents="1" format="ascii">
					1.728292e+02	5.146337e+02	9.070418e+02	9.769865e+02	5.630827e+02	9.753857e+02	8.040540e+02	1.715409e+02
					3.280001e+02	4.097484e+02	4.059064e+02	4.006786e+02	3.906693e+02	3.968328e+02	3.901027e+02	3.655222e+02	9.999989e+02
					2.571983e+02	9.694805e+02	9.993910e+02	9.355139e+02	9.209367e+02	3.102619e+02	9.504636e+02	9.751093e+02	9.998808e+02
					2.783439e+02	9.996247e+02	9.994854e+02	9.947196e+02	9.736777e+02	2.351484e+02	1.545555e+02	9.998735e+02	9.998108e+02
					9.870865e+02	9.733064e+02	9.884574e+02	1.000512e+03	8.135583e+02	7.839578e+02	9.520025e+02	1.000146e+03	9.990326e+02
					9.968829e+02	5.853939e+02	9.991149e+02	4.218851e+02	9.897999e+02	9.887158e+02	9.490315e+02	4.199479e+02	9.753276e+02
					9.996675e+02	9.998828e+02	8.341210e+02	9.989214e+02	1.000258e+03	9.999253e+02	1.521990e+03	1.547661e+02	9.999436e+02
					9.998650e+02	9.971161e+02	1.000064e+03	9.993813e+02	9.998323e+02	9.995844e+02	3.499825e+02	5.875262e+02	3.344726e+02
					2.569646e+02	2.305668e+02	2.501691e+02	3.991861e+02	3.832876e+02	3.921524e+02	3.915947e+02	3.976497e+02	3.912738e+02
					4.426338e+02	4.434159e+02	3.128883e+02	4.446654e+02	4.427692e+02	4.491223e+02	4.355795e+02	4.337747e+02	3.186914e+02
					9.996926e+02	2.495290e+02	2.383521e+02	2.271362e+02	3.124601e+02	3.169880e+02	9.993445e+02	9.997670e+02	9.997619e+02
					9.998847e+02	9.912081e+02	3.621545e+02	3.540273e+02	3.443942e+02	2.633047e+02	2.803337e+02	1.293432e+02	3.647974e+02
					3.544084e+02	3.567807e+02	3.436710e+02	3.192812e+02	3.106489e+02	3.208557e+02	3.280725e+02	3.507033e+02	3.424572e+02
					3.177296e+02	3.320194e+02	3.191217e+02	3.284789e+02	2.874412e+02	9.998339e+02	5.059275e+02	4.105516e+02	4.178575e+02
					4.142862e+02	4.237189e+02	4.098622e+02	4.116844e+02	4.200068e+02	4.530702e+02	4.428397e+02	3.300622e+02	4.579441e+02
					4.663513e+02	4.627140e+02	3.438065e+02	3.613732e+02	3.530417e+02	3.181751e+02	3.085248e+02	3.142362e+02	3.270409e+02
					4.211438e+02	4.575363e+02	4.375072e+02	3.103293e+02	4.416454e+02	4.487501e+02	4.427217e+02	4.302789e+02	4.371575e+02
					3.159698e+02	3.962979e+02	3.825387e+02	3.898513e+02	3.902854e+02	4.226205e+02	4.099232e+02	4.164794e+02	9.870732e+02
					9.999981e+02	9.996639e+02	9.995142e+02	2.900134e+02	3.459651e+02	1.528448e+02	2.452121e+02	5.423529e+02	4.078717e+02
					4.834934e+02	2.697536e+02	1.279623e+02	1.312488e+02	2.802376e+02	3.651892e+02	1.505257e+02	1.701412e+02	1.820457e+02
					3.797786e+02	4.614511e+02	4.404358e+02	4.639207e+02	9.993665e+02	2.489150e+02	2.749564e+02	9.996736e+02	2.355961e+02
					2.485915e+02	3.314422e+02	2.595794e+02	2.854056e+02	2.927699e+02	2.753022e+02	2.815940e+02	3.833661e+02	3.910173e+02
					3.917656e+02	3.958385e+02	3.552831e+02	3.464468e+02	3.642395e+02	3.553820e+02	3.641589e+02	3.644924e+02	3.461003e+02
					3.474929e+02	3.825523e+02	3.535036e+02	3.826039e+02	3.843944e+02	4.075789e+02	3.946345e+02	3.962697e+02	3.963655e+02
					4.021133e+02	4.084650e+02	9.993017e+02	9.998408e+02	9.991030e+02	9.994468e+02	9.997895e+02	9.995296e+02	9.996492e+02
					1.000031e+03	9.977112e+02	9.927372e+02	2.900180e+02	2.919462e+02	3.028992e+02	3.014900e+02	2.940235e+02	2.971406e+02
					7.342506e+02	1.322706e+02	1.272207e+02	5.179981e+02	1.277321e+02	2.794735e+02	1.691346e+02	2.688543e+02	2.388785e+02
					2.684141e+02	4.774959e+02	4.998920e+02	2.767145e+02	2.666279e+02	2.696222e+02	2.581397e+02	4.680794e+02	2.662598e+02
					2.428707e+02	2.555745e+02	4.563638e+02	2.311275e+02	2.786697e+02	2.631835e+02	3.902854e+02	2.781443e+02	2.719883e+02
					2.819057e+02	9.995162e+02	9.997493e+02	9.997987e+02	2.936454e+02	3.027105e+02	3.105795e+02	1.312758e+03	2.580861e+02
					2.670274e+02	2.575708e+02	2.389005e+02	8.706506e+02	4.112857e+02	5.852582e+02	2.361145e+02	2.192760e+02	3.211854e+02
					3.113058e+02	4.621436e+02	4.530926e+02	4.624451e+02	4.595516e+02	4.588114e+02	3.921331e+02	3.017574e+02	4.149410e+02
					4.117532e+02	3.591449e+02	3.724816e+02	3.820479e+02	3.709698e+02	3.979482e+02	4.054446e+02	3.967391e+02	3.808545e+02
					3.743716e+02	3.730091e+02	3.636220e+02	3.838537e+02	3.985763e+02	4.072449e+02	3.989978e+02	1.686732e+02	1.488754e+02
					1.523693e+02	1.244080e+02	3.031896e+02	1.340834e+02	2.989781e+02	2.998231e+02	1.396385e+02	1.596409e+02	1.454368e+02
					1.185941e+02	1.368451e+02	2.668916e+02	2.741988e+02	3.056088e+02	1.289642e+02	2.581553e+02	2.767648e+02	3.602664e+02
					4.786002e+02	4.452147e+02	6.880603e+02	2.344968e+02	2.731544e+02	1.509606e+02	2.476894e+02	2.693868e+02	1.570950e+02
					1.308320e+02	1.266729e+02	3.810094e+02	1.466088e+02	1.519948e+02	3.531233e+02	3.202018e+02	1.619314e+02	2.728765e+02
					2.833229e+02	2.820982e+02	2.732171e+02	2.738036e+02	4.002912e+02	2.664130e+02	2.637428e+02	9.996076e+02	9.996396e+02
					9.998249e+02	9.998010e+02	9.985099e+02	9.299423e+02	9.738927e+02	9.528915e+02	9.441795e+02	9.528730e+02	4.607922e+02
					4.212224e+02	3.825589e+02	3.797715e+02	3.587010e+02	3.686809e+02	3.862190e+02	3.717106e+02	3.635524e+02	3.979548e+02
					3.974520e+02	4.033754e+02	4.050636e+02	4.086038e+02	3.824076e+02	3.829029e+02	3.622911e+02	3.627516e+02	3.726887e+02
					3.623266e+02	3.951393e+02	3.980962e+02	4.103781e+02	4.109345e+02	3.983528e+02	4.030348e+02	4.046028e+02	4.109031e+02
					1.526723e+02	1.796893e+02	1.634895e+02	1.740817e+02	3.938857e+02	3.404788e+02	3.843404e+02	1.590828e+02	1.316023e+02
					1.391109e+02	1.377550e+02	1.658685e+02	1.412682e+02	3.338289e+02	1.484897e+02	1.640015e+02	3.542506e+02	3.748917e+02
					3.684227e+02	1.582680e+02	4.368928e+02	4.471979e+02	4.350512e+02	4.487111e+02	4.481148e+02	4.364941e+02	4.385003e+02
					4.489201e+02	4.553538e+02	4.604417e+02	4.467621e+02	4.527793e+02	4.417702e+02	4.581714e+02	4.548158e+02	3.874979e+02
					4.327643e+02	4.365184e+02	4.239269e+02	4.376600e+02	4.396425e+02	4.287650e+02	4.284425e+02	4.224424e+02	4.162743e+02
					4.232053e+02	4.182383e+02	4.109001e+02	4.099691e+02	2.900842e+02	3.810156e+02	1.898697e+02	4.109569e+02	4.066955e+02
					4.009860e+02	4.035053e+02	4.088264e+02	3.949591e+02	3.794150e+02	4.094201e+02	4.184407e+02	2.606475e+02	4.289374e+02
					4.366418e+02	4.240064e+02	4.273301e+02	4.218858e+02	4.169169e+02	4.197315e+02	4.137994e+02	3.985348e+02	4.107571e+02
					4.067788e+02	4.159684e+02	4.217083e+02	4.274543e+02	4.137504e+02	4.364033e+02	4.332414e+02	4.248400e+02	3.254702e+02
					3.264656e+02	3.376361e+02	3.434618e+02	3.338483e+02	3.834016e+02	3.857536e+02	3.734815e+02	3.738027e+02	3.640179e+02
					3.780359e+02	3.493621e+02	3.365588e+02	3.250702e+02	2.879854e+02	2.872936e+02	3.054300e+02	2.945819e+02	2.977415e+02
					2.881467e+02	3.062205e+02	3.027591e+02	3.453534e+02	3.332565e+02	3.240647e+02	3.347602e+02	3.441488e+02	3.257717e+02
					3.219067e+02	3.649224e+02	3.572311e+02	3.622657e+02	3.702408e+02	3.770349e+02	3.716334e+02	3.424002e+02	3.287718e+02
					3.607036e+02	3.439525e+02	3.285544e+02	3.353840e+02	3.458665e+02	3.273560e+02	3.276041e+02	3.368493e+02	3.459411e+02
					3.364344e+02	3.278613e+02	3.624126e+02	3.721208e+02	3.662315e+02	3.876759e+02	3.733064e+02	3.809360e+02	3.693940e+02
					3.856967e+02	3.781029e+02	3.819178e+02	2.925470e+02	3.090434e+02	3.005256e+02	2.901415e+02	3.094550e+02	2.995781e+02
					3.099619e+02	2.919346e+02	1.653785e+02	4.079571e+02	3.776210e+02	1.528328e+02	4.029129e+02	3.747886e+02	3.955132e+02
					2.715517e+02	4.125750e+02	4.238386e+02	4.297970e+02	4.359701e+02	4.241321e+02	4.356214e+02	4.470583e+02	4.354191e+02
					4.476948e+02	4.226749e+02	4.167917e+02	4.237954e+02	4.172291e+02	4.114706e+02	4.104520e+02	4.234623e+02	4.473801e+02
					4.595780e+02	4.542398e+02	4.480244e+02	4.555638e+02	4.572906e+02	4.523471e+02	4.294246e+02	4.229278e+02	4.271189e+02
					4.307890e+02	4.365428e+02	4.639069e+02	4.593243e+02	4.623486e+02	4.620585e+02	4.630917e+02	3.087322e+02	4.465043e+02
					4.618345e+02	3.308321e+02	4.624650e+02	4.671073e+02	4.642278e+02	4.666593e+02	4.660433e+02	4.531552e+02	4.477894e+02
					4.613869e+02	4.592003e+02	4.463371e+02	4.578406e+02	4.491957e+02	4.462549e+02	4.512956e+02	4.254943e+02	4.353952e+02
					4.320680e+02	4.282469e+02	4.242709e+02	4.335404e+02	4.364313e+02	4.118459e+02	3.978647e+02	4.037354e+02	4.148133e+02
					3.980553e+02	4.340542e+02	3.469611e+02	4.450613e+02	4.465012e+02	4.447284e+02	3.533617e+02	3.517235e+02	3.161529e+02
					4.176376e+02	4.188678e+02	4.113906e+02	4.236756e+02	4.260914e+02	1.878395e+02	4.114034e+02	3.967496e+02	4.361688e+02
					4.195721e+02	4.157540e+02	3.928069e+02	4.567207e+02	4.440526e+02	4.553906e+02	4.504063e+02	4.561932e+02	4.433971e+02
					4.308536e+02	4.359492e+02	4.245437e+02	4.276243e+02	4.347568e+02	4.227939e+02	4.311583e+02	4.340091e+02	1.476258e+02
					5.114326e+02	2.165213e+02	2.373372e+02	5.199381e+02	9.996946e+02	4.734221e+02	9.994587e+02	9.997312e+02	9.995619e+02
					9.995584e+02	9.994638e+02	1.003818e+03	1.001899e+03	1.002336e+03	1.002656e+03	1.003664e+03	1.002885e+03	1.004096e+03
					1.004012e+03	4.828659e+02	2.136729e+02	2.621911e+02	2.645242e+02	9.996220e+02	1.003309e+03	1.002976e+03	1.000903e+03
					9.998822e+02	2.550601e+02	2.713697e+02	2.655517e+02	2.347313e+02	4.896909e+02	2.323998e+02	4.830782e+02	6.232199e+02
					4.607084e+02	7.620484e+02	2.912466e+02	2.733258e+02	2.804569e+02	2.834140e+02	2.750541e+02	2.955456e+02	1.667031e+02
					1.745106e+02	1.363481e+02	3.434301e+02	3.372195e+02	3.106132e+02	3.250826e+02	1.369735e+02	3.442408e+02	3.290155e+02
					3.080286e+02	2.999824e+02	3.115602e+02	2.940632e+02	2.703361e+02	2.868220e+02	2.764914e+02	2.815558e+02	2.737331e+02
					2.938965e+02	2.751297e+02	2.875967e+02	2.762013e+02	2.564729e+02	2.640221e+02	2.726349e+02	2.663987e+02	2.853121e+02
					3.067338e+02	2.887495e+02	2.930975e+02	3.111089e+02	2.961827e+02	3.396261e+02	3.247572e+02	3.831107e+02	3.630379e+02
					3.436304e+02	3.273504e+02	2.876240e+02	3.050378e+02	2.904916e+02	2.955440e+02	3.079996e+02	3.447005e+02	3.531066e+02
					3.511356e+02	3.444416e+02	3.630971e+02	3.840331e+02	3.361058e+02	3.441221e+02	3.253328e+02	3.355320e+02	3.237635e+02
					3.283735e+02	3.438841e+02	3.264373e+02	3.449627e+02	3.362081e+02	3.283861e+02	3.324869e+02	3.052242e+02	3.139815e+02
					2.983332e+02	3.049259e+02	2.910227e+02	3.089551e+02	3.137271e+02	3.191891e+02	3.116929e+02	3.373501e+02	3.470197e+02
					3.454552e+02	3.446644e+02	3.505567e+02	3.670037e+02	3.637525e+02	3.835101e+02	1.349933e+02	1.626843e+02	2.998713e+02
					2.732540e+02	2.894369e+02	3.097133e+02	3.507302e+02	3.651168e+02	3.517536e+02	3.486905e+02	3.603395e+02	3.292176e+02
					3.043673e+02	3.439733e+02	3.160634e+02	3.484881e+02	3.316688e+02	3.371501e+02	3.339504e+02	9.990299e+02	9.955822e+02
					1.000123e+03	9.961917e+02	9.954935e+02	9.946904e+02	9.996537e+02	9.993595e+02	9.996077e+02	9.980398e+02	9.887512e+02
					9.919810e+02	9.994884e+02	9.995313e+02	9.990459e+02	9.996571e+02	9.995230e+02	2.892952e+02	2.959019e+02	3.085743e+02
					3.116591e+02	3.289856e+02	3.111414e+02	3.287084e+02	3.181573e+02	3.202045e+02	3.369631e+02	3.442618e+02	3.295002e+02
					3.366988e+02	3.313872e+02	3.074752e+02	3.282755e+02	3.100289e+02	3.206217e+02	2.323664e+02	2.299060e+02	4.224515e+02
					6.300385e+02	2.532615e+02	2.454281e+02	2.315373e+02	2.467265e+02	2.526562e+02	2.560162e+02	2.620759e+02	2.689008e+02
					9.994579e+02	4.526431e+02	4.573550e+02	4.450604e+02	4.428677e+02	4.400396e+02	4.478113e+02	4.413018e+02	4.376374e+02
					4.661070e+02	4.388345e+02	4.357145e+02	4.490278e+02	4.504388e+02	4.422590e+02	4.413562e+02	2.875265e+02	4.480126e+02
					4.333862e+02	4.256986e+02	4.379535e+02	4.304488e+02	4.476979e+02	3.906770e+02	3.653041e+02	3.812527e+02	3.575667e+02
					3.916168e+02	3.980796e+02	3.903798e+02	1.841486e+02	3.837033e+02	3.991317e+02	3.913729e+02	4.001070e+02	3.830003e+02
					3.891721e+02	3.613719e+02	4.123585e+02	4.449918e+02	2.375123e+02	2.597973e+02	2.543446e+02	9.998002e+02	4.045794e+02
					4.015186e+02	4.094063e+02	3.965844e+02	3.991508e+02	4.035692e+02	6.309838e+02	6.519190e+02	6.495533e+02	9.986177e+02
					9.971482e+02	9.989108e+02	1.000183e+03	9.852674e+02	9.779614e+02	9.840463e+02	9.927630e+02	9.353128e+02	9.390708e+02
					9.498133e+02	9.465585e+02	8.278351e+02	7.954287e+02	8.512955e+02	8.269346e+02	9.941260e+02	9.807366e+02	9.745460e+02
					9.991691e+02	9.945277e+02	8.461850e+02	8.484323e+02	7.770707e+02	1.000131e+03	9.997103e+02	1.000933e+03	8.739291e+02
					8.894795e+02	8.473315e+02	2.658693e+02	5.087011e+02	2.497553e+02	9.155552e+02	9.643073e+02	9.004605e+02	5.951876e+02
					5.476013e+02	5.449868e+02	4.912760e+02	2.653768e+02	2.699779e+02	2.694768e+02	2.911229e+02	2.740452e+02	2.714321e+02
					4.059879e+02	3.721042e+02	3.928264e+02	3.915591e+02	2.681031e+02	2.629301e+02	2.952277e+02	2.922610e+02	1.737917e+02
					8.646273e+02	8.633181e+02	8.383341e+02	8.903332e+02	7.765418e+02	7.945270e+02	7.579310e+02	8.144621e+02	7.045891e+02
					5.734454e+02	3.102754e+02	1.794454e+02	3.111811e+02	3.172731e+02	8.424482e+02	8.097503e+02	8.080117e+02	8.704544e+02
					8.993234e+02	8.671434e+02	6.815189e+02	3.253148e+02	4.787441e+02	3.942894e+02	7.085498e+02	6.231799e+02	8.479448e+02
					8.833166e+02	7.002702e+02	7.277948e+02	6.561660e+02	8.558856e+02	2.878278e+02	4.983231e+02	3.659175e+02	6.958941e+02
					7.181373e+02	2.955241e+02	2.782585e+02	3.030336e+02	2.720017e+02	3.572019e+02	4.029119e+02	3.983873e+02	2.876578e+02
					2.912824e+02	2.557181e+02	2.675202e+02	2.784630e+02	3.032106e+02	2.727005e+02	3.927896e+02	3.883420e+02	4.320753e+02
					4.426594e+02	4.390536e+02	4.551242e+02	4.281716e+02	2.733120e+02	4.467948e+02	2.737184e+02	4.410865e+02	4.413106e+02
					4.514690e+02	3.169441e+02	2.747007e+02	2.791141e+02	2.652173e+02	2.736934e+02	2.894811e+02	3.101348e+02	4.022216e+02
					3.599488e+02	3.365336e+02	3.698279e+02	3.602437e+02	4.118486e+02	3.980553e+02	4.023316e+02	3.746601e+02	3.769539e+02
					3.413913e+02	9.754428e+02	1.000999e+03	9.961018e+02	1.002489e+03	8.548570e+02	7.868818e+02	7.118563e+02	8.257811e+02
					9.996124e+02	1.000762e+03	9.995677e+02	9.498136e+02	9.971036e+02	8.968335e+02	9.280104e+02	9.721836e+02	9.013882e+02
					9.238818e+02	8.750565e+02	9.535186e+02	9.362009e+02	9.512760e+02	9.992907e+02	9.954072e+02	1.000134e+03	1.002088e+03
					2.591233e+02	2.422617e+02	4.442589e+02	4.093736e+02	6.692811e+02	7.196205e+02	8.275508e+02	8.033585e+02	6.590670e+02
					3.185342e+02	3.367103e+02	3.200946e+02	3.001606e+02	9.515865e+02	8.870998e+02	7.587340e+02	7.879907e+02	1.000190e+03
					8.198606e+02	9.339174e+02	8.049786e+02	7.933511e+02	9.158955e+02	8.967440e+02	9.068916e+02	9.047965e+02	9.212200e+02
					9.406391e+02	9.251541e+02	9.655663e+02	9.805968e+02	9.659640e+02	9.639394e+02	9.976751e+02	9.856244e+02	9.720141e+02
					9.556267e+02	9.495706e+02	9.968632e+02	9.934862e+02	9.242981e+02	9.457757e+02	9.234043e+02	8.185004e+02	7.884081e+02
					8.221941e+02	8.485009e+02	7.255581e+02	7.007215e+02	6.513338e+02	6.847112e+02	7.862280e+02	8.190354e+02	8.338747e+02
					8.116504e+02	9.493125e+02	9.087387e+02	9.219937e+02	8.984564e+02	1.001932e+03	1.000681e+03	7.066637e+02	7.275568e+02
					9.275283e+02	9.260134e+02	9.236140e+02	9.999244e+02	1.001115e+03	9.944288e+02	9.854573e+02	9.198411e+02	9.021397e+02
					9.291060e+02	9.169874e+02	9.094040e+02	9.050227e+02	8.489411e+02	9.307144e+02	9.135887e+02	9.277635e+02	1.000683e+03
					1.000983e+03	1.000715e+03	1.002136e+03	9.930077e+02	9.816738e+02	9.903150e+02	9.999302e+02	1.000508e+03	9.939921e+02
					9.988757e+02	9.599445e+02	9.390415e+02	9.799093e+02	9.615798e+02	9.864585e+02	9.967412e+02	1.001783e+03	9.172561e+02
					7.193367e+02	6.871814e+02	8.096178e+02	5.099976e+02	2.781249e+02	6.010757e+02	6.080198e+02	5.471744e+02	3.821448e+02
					6.864983e+02	6.006749e+02	6.338353e+02	6.835743e+02	5.322632e+02	4.295833e+02	4.933031e+02	3.107691e+02	3.710209e+02
					3.155482e+02	4.331316e+02	2.893154e+02	3.526233e+02	3.719401e+02	2.807814e+02	3.279599e+02	4.336348e+02	2.244960e+02
					5.683633e+02	6.071864e+02	3.032366e+02	3.692829e+02	2.828402e+02	3.988299e+02	3.765678e+02	5.340083e+02	4.342994e+02
					8.158105e+02	8.537564e+02	5.724449e+02	7.678488e+02	6.377255e+02	7.018190e+02	7.020939e+02	6.303641e+02	6.551127e+02
					5.901439e+02	8.170222e+02	6.670695e+02	7.638821e+02	8.501404e+02	8.152153e+02	7.388077e+02	9.054869e+02	9.406896e+02
					8.049239e+02	8.943455e+02	6.592874e+02	8.167319e+02	6.574389e+02	7.058398e+02	8.183714e+02	9.850743e+02	9.938538e+02
					9.832371e+02	9.784046e+02	9.960414e+02	9.875565e+02	9.943115e+02	9.768049e+02	9.863061e+02	9.872705e+02	9.794013e+02
					9.956109e+02	9.992115e+02	9.984616e+02	9.976203e+02	9.963089e+02	9.942588e+02	9.997100e+02	9.995390e+02	1.002121e+03
					1.001744e+03	1.001166e+03	1.001811e+03	9.970849e+02	1.000846e+03	9.925004e+02	9.988669e+02	9.594826e+02	9.769098e+02
					1.002683e+03	9.989043e+02	1.002527e+03	1.001756e+03	9.998387e+02	1.001689e+03	9.965995e+02	9.994669e+02	9.332079e+02
					8.626008e+02	8.794637e+02	8.951770e+02	9.264046e+02	9.330176e+02	8.870997e+02	9.299482e+02	9.401393e+02	8.994112e+02
					8.661443e+02	9.272375e+02	9.095768e+02	9.395491e+02	9.322335e+02	9.273363e+02	9.712779e+02	9.964528e+02	9.564277e+02
					9.662144e+02	1.002190e+03	1.000492e+03	1.001756e+03	1.000209e+03	1.000790e+03	1.000137e+03	9.883722e+02	8.818645e+02
					8.763525e+02	8.959836e+02	9.080813e+02	8.909915e+02	7.520141e+02	8.159630e+02	8.034567e+02	7.599979e+02	7.904899e+02
					7.654327e+02	9.091956e+02	8.822466e+02	9.066497e+02	8.696918e+02	8.963312e+02	8.577049e+02	8.900493e+02	8.734668e+02
					8.654864e+02	8.806306e+02	8.585230e+02	8.319064e+02	7.805293e+02	8.195878e+02	7.613503e+02	8.305151e+02	8.123562e+02
					8.560751e+02	8.391421e+02	8.294990e+02	8.150208e+02	9.051582e+02	6.761504e+02	7.251864e+02	7.014621e+02	6.790599e+02
					5.828861e+02	6.584425e+02	6.348243e+02	7.126778e+02	7.831840e+02	7.317174e+02	7.854460e+02	7.526598e+02	7.562275e+02
					8.061385e+02	9.123443e+02	8.682571e+02	9.072091e+02	8.477318e+02	9.816797e+02	1.002570e+03	1.000842e+03	1.002517e+03
					1.002592e+03	1.002163e+03	1.000664e+03	9.960537e+02	1.000573e+03	1.000966e+03	9.997831e+02	1.000687e+03	9.830756e+02
					8.980091e+02	8.954890e+02	7.838738e+02	8.412664e+02	7.646869e+02	7.846372e+02	7.312689e+02	6.605170e+02	6.276336e+02
					6.384340e+02	6.799412e+02	7.337401e+02	6.654763e+02	7.323292e+02	9.071564e+02	8.727996e+02	8.535552e+02	7.931769e+02
					8.143161e+02	9.452451e+02	8.957046e+02	7.942305e+02	7.614575e+02	7.297218e+02	9.022881e+02	8.503912e+02	8.793593e+02
					9.038552e+02	8.517827e+02	8.757272e+02	9.287316e+02	9.639134e+02	9.711844e+02	9.567684e+02	9.335829e+02	9.448965e+02
					9.605291e+02	9.631766e+02	9.467359e+02	8.799519e+02	8.512954e+02	8.328435e+02	8.715719e+02	8.908558e+02	8.424338e+02
					9.201201e+02	1.000585e+03	1.001236e+03	1.001531e+03	9.605100e+02	9.116183e+02	9.142214e+02	9.986272e+02	1.002043e+03
					9.838626e+02	9.344837e+02	9.909747e+02	9.871438e+02	9.658343e+02	9.956601e+02	1.000813e+03	9.990527e+02	9.741383e+02
					9.807359e+02	9.945220e+02	9.950362e+02	1.001901e+03	9.370670e+02	9.590210e+02	9.543630e+02	9.639966e+02	9.804077e+02
					8.977948e+02	9.425468e+02	9.713268e+02	9.442751e+02	8.940648e+02	9.484402e+02	9.490526e+02	8.508865e+02	9.298298e+02
					8.683655e+02	9.411061e+02	9.638244e+02	9.421356e+02	8.727835e+02	8.933666e+02	8.355695e+02	8.980321e+02	9.906306e+02
					9.385344e+02	9.037189e+02	8.868178e+02	8.292884e+02	9.064696e+02	8.625519e+02	9.198230e+02	8.381430e+02	8.218229e+02
					9.097008e+02	8.100150e+02	9.322768e+02	8.603048e+02	8.324346e+02	7.819939e+02	8.903031e+02	9.989733e+02	1.000389e+03
					1.000135e+03	1.001046e+03	9.669397e+02	9.998073e+02	9.974228e+02	9.720729e+02	9.958518e+02	8.549430e+02	8.661290e+02
					9.485308e+02	1.000574e+03	1.001128e+03	1.001012e+03	9.069416e+02	9.242495e+02	9.040073e+02	3.412256e+02	3.603540e+02