<?xml version="1.0"?>

<!--
CSMP_Simulation
-->

<VTKFile type="UnstructuredGrid" version="1.0" byte_order="LittleEndian">
	<UnstructuredGrid>
		<Piece NumberOfPoints="2922" NumberOfCells="5619">
			<Points>
				<DataArray type="Float64" Name="Position" NumberOfComponents="3" format="ascii">
					1.062348e+04	-6.219427e+03	0.000000e+00	1.328123e+04	-3.388001e+03	0.000000e+00	6.533000e+03	-2.871000e+03	0.000000e+00	8.993999e+03	3.450022e+02	0.000000e+00
					6.434000e+03	-6.251000e+03	0.000000e+00	6.415000e+03	-1.312000e+03	0.000000e+00	8.891000e+03	-1.610000e+02	0.000000e+00	1.593372e+04	-6.223812e+03	0.000000e+00
					1.243124e+04	-5.182061e+03	0.000000e+00	1.180818e+04	-6.661451e+03	0.000000e+00	1.199040e+04	-6.569837e+03	0.000000e+00	1.186573e+04	-6.450233e+03	0.000000e+00
					1.224666e+04	-6.222517e+03	0.000000e+00	1.208180e+04	-6.360720e+03	0.000000e+00	1.135568e+04	-6.216921e+03	0.000000e+00	1.177466e+04	-5.800292e+03	0.000000e+00
					1.484109e+03	2.369937e+02	0.000000e+00	1.048845e+04	-4.576829e+03	0.000000e+00	5.088007e+03	2.164612e+02	0.000000e+00	1.616065e+04	6.885872e+02	0.000000e+00
					5.856588e+03	2.844799e+02	0.000000e+00	5.964146e+03	2.322470e+02	0.000000e+00	1.285384e+04	-8.473227e+03	0.000000e+00	6.554646e+03	2.976259e+02	0.000000e+00
					6.220259e+03	3.810972e+02	0.000000e+00	2.455667e+03	2.604214e+02	0.000000e+00	1.185441e+04	-8.594387e+03	0.000000e+00	8.953729e+02	2.424411e+02	0.000000e+00
					1.642061e+04	5.389531e+02	0.000000e+00	9.022812e+03	5.486281e+02	0.000000e+00	1.072547e+04	-4.265213e+03	0.000000e+00	1.596156e+04	-4.568462e+03	0.000000e+00
					1.049681e+04	-6.339904e+03	0.000000e+00	1.229884e+04	9.679014e+02	0.000000e+00	1.346081e+04	9.303555e+02	0.000000e+00	7.674576e+03	2.576962e+02	0.000000e+00
					8.121128e+03	2.577928e+02	0.000000e+00	8.390419e+03	2.530714e+02	0.000000e+00	1.759058e+04	3.107264e+02	0.000000e+00	1.283469e+04	-3.190105e+03	0.000000e+00
					1.310544e+04	-3.163050e+03	0.000000e+00	6.218396e+03	2.847346e+02	0.000000e+00	1.964998e+04	3.306567e+02	0.000000e+00	1.089832e+04	6.517557e+02	0.000000e+00
					9.482042e+03	5.002750e+02	0.000000e+00	1.461891e+04	-3.601876e+03	0.000000e+00	1.694475e+04	2.822433e+02	0.000000e+00	1.223129e+04	-8.439639e+03	0.000000e+00
					7.092101e+03	3.133630e+02	0.000000e+00	7.447673e+03	2.954910e+02	0.000000e+00	5.479449e+03	3.927924e+02	0.000000e+00	1.430834e+04	-8.440884e+03	0.000000e+00
					1.346187e+04	-3.101654e+03	0.000000e+00	1.466219e+04	5.912805e+02	0.000000e+00	1.431424e+04	6.995984e+02	0.000000e+00	1.198158e+04	-3.600157e+03	0.000000e+00
					1.519729e+04	6.008027e+02	0.000000e+00	1.732254e+04	2.914492e+02	0.000000e+00	1.847268e+04	5.552377e+02	0.000000e+00	1.373014e+04	-3.092539e+03	0.000000e+00
					1.598609e+04	-4.803680e+03	0.000000e+00	1.811668e+03	2.957238e+02	0.000000e+00	2.068111e+03	3.301681e+02	0.000000e+00	3.593477e+02	6.241832e-01	0.000000e+00
					1.315684e+04	9.290093e+02	0.000000e+00	9.757773e+03	6.136685e+02	0.000000e+00	1.013994e+04	6.394650e+02	0.000000e+00	9.949611e+03	7.276424e+02	0.000000e+00
					1.479179e+04	-3.977888e+03	0.000000e+00	1.474764e+04	-3.691732e+03	0.000000e+00	1.224233e+04	-3.775151e+03	0.000000e+00	1.235721e+04	-3.992361e+03	0.000000e+00
					1.239488e+04	-3.732875e+03	0.000000e+00	1.247959e+04	-3.889221e+03	0.000000e+00	1.489970e+04	-6.402044e+03	0.000000e+00	1.471371e+04	-6.063480e+03	0.000000e+00
					1.503558e+04	-6.243497e+03	0.000000e+00	1.463383e+04	-6.231790e+03	0.000000e+00	1.359516e+04	-6.370837e+03	0.000000e+00	1.336635e+04	-6.229341e+03	0.000000e+00
					1.486979e+04	-7.470250e+03	0.000000e+00	1.455711e+04	-7.489929e+03	0.000000e+00	1.120299e+04	-4.942350e+03	0.000000e+00	1.218357e+04	-7.531530e+03	0.000000e+00
					1.251446e+04	-7.480192e+03	0.000000e+00	1.240108e+04	-7.647510e+03	0.000000e+00	1.239322e+04	-7.293615e+03	0.000000e+00	1.368325e+04	-7.242141e+03	0.000000e+00
					1.217897e+04	-5.028812e+03	0.000000e+00	1.378964e+04	8.854108e+02	0.000000e+00	1.351945e+04	-3.856343e+03	0.000000e+00	1.333151e+04	-3.674419e+03	0.000000e+00
					1.350782e+04	-3.520236e+03	0.000000e+00	1.479244e+04	-4.909493e+03	0.000000e+00	1.380050e+04	-4.989557e+03	0.000000e+00	3.084262e+03	3.746820e+02	0.000000e+00
					3.006144e+03	2.572346e+02	0.000000e+00	1.252005e+03	2.691829e+02	0.000000e+00	1.642126e+03	2.829086e+02	0.000000e+00	8.235090e+03	4.169793e+02	0.000000e+00
					1.537108e+04	-5.728762e+03	0.000000e+00	1.550100e+04	-5.598568e+03	0.000000e+00	1.543359e+04	-5.440257e+03	0.000000e+00	1.516251e+04	-4.367050e+03	0.000000e+00
					1.542543e+04	-4.626431e+03	0.000000e+00	1.547978e+04	-4.435709e+03	0.000000e+00	1.421355e+04	-5.774419e+03	0.000000e+00	1.398427e+04	-5.607986e+03	0.000000e+00
					1.433859e+04	-5.644592e+03	0.000000e+00	1.422646e+04	-5.431404e+03	0.000000e+00	1.278519e+04	-5.034132e+03	0.000000e+00	1.297347e+04	-4.888217e+03	0.000000e+00
					1.308886e+04	-5.058455e+03	0.000000e+00	1.295570e+04	-5.179625e+03	0.000000e+00	1.371210e+04	-5.548806e+03	0.000000e+00	1.306586e+04	-5.417419e+03	0.000000e+00
					1.398961e+04	-5.001093e+03	0.000000e+00	1.423737e+04	-5.238687e+03	0.000000e+00	1.553662e+04	-5.035070e+03	0.000000e+00	1.541510e+04	-5.176839e+03	0.000000e+00
					1.433199e+04	-4.490070e+03	0.000000e+00	1.772795e+04	4.701005e+02	0.000000e+00	1.301714e+04	-3.340203e+03	0.000000e+00	1.291928e+04	-6.673458e+03	0.000000e+00
					1.305404e+04	-6.847013e+03	0.000000e+00	1.275393e+04	-6.763001e+03	0.000000e+00	1.299225e+04	-6.992535e+03	0.000000e+00	1.111766e+04	-6.671729e+03	0.000000e+00
					1.100675e+04	-6.816450e+03	0.000000e+00	1.117046e+04	-6.969377e+03	0.000000e+00	1.205000e+04	-8.078535e+03	0.000000e+00	1.184148e+04	-7.859306e+03	0.000000e+00
					1.196430e+04	-8.231484e+03	0.000000e+00	1.298170e+04	-7.885249e+03	0.000000e+00	1.295062e+04	-8.221395e+03	0.000000e+00	1.309178e+04	-8.017537e+03	0.000000e+00
					1.120470e+04	-5.453850e+03	0.000000e+00	1.115255e+04	-5.738876e+03	0.000000e+00	1.126426e+04	-5.604117e+03	0.000000e+00	1.184009e+04	-5.022972e+03	0.000000e+00
					1.172669e+04	-4.862486e+03	0.000000e+00	1.153323e+04	-4.959783e+03	0.000000e+00	1.175756e+04	-5.171477e+03	0.000000e+00	1.534244e+04	-6.934844e+03	0.000000e+00
					1.455437e+04	-8.098472e+03	0.000000e+00	1.476956e+04	-7.877258e+03	0.000000e+00	1.464624e+04	-8.340289e+03	0.000000e+00	1.404268e+04	-7.444684e+03	0.000000e+00
					1.421918e+04	-7.630822e+03	0.000000e+00	1.428388e+04	-7.472196e+03	0.000000e+00	1.526650e+04	-7.239097e+03	0.000000e+00	1.513630e+04	-7.368500e+03	0.000000e+00
					1.581589e+04	-5.652546e+03	0.000000e+00	1.296440e+04	-6.343040e+03	0.000000e+00	1.295470e+04	-6.059130e+03	0.000000e+00	1.303797e+04	-6.200013e+03	0.000000e+00
					1.273442e+04	-6.210589e+03	0.000000e+00	1.360396e+04	-6.962240e+03	0.000000e+00	1.362392e+04	-6.655270e+03	0.000000e+00	1.339020e+04	-6.812359e+03	0.000000e+00
					6.442692e+03	4.405175e+02	0.000000e+00	3.840145e+03	2.404374e+02	0.000000e+00	3.475756e+03	2.459832e+02	0.000000e+00	3.582548e+03	3.131050e+02	0.000000e+00
					1.179383e+04	-4.550717e+03	0.000000e+00	1.173986e+04	-5.484162e+03	0.000000e+00	1.062189e+04	-5.748233e+03	0.000000e+00	1.180024e+04	-3.998124e+03	0.000000e+00
					1.173389e+04	-3.844468e+03	0.000000e+00	1.197836e+04	-3.861204e+03	0.000000e+00	1.188099e+04	-3.736811e+03	0.000000e+00	1.137465e+04	-4.416604e+03	0.000000e+00
					1.124799e+04	-4.291994e+03	0.000000e+00	1.108948e+04	-4.439061e+03	0.000000e+00	1.120866e+04	-4.578218e+03	0.000000e+00	1.076080e+04	-6.185724e+03	0.000000e+00
					1.052158e+04	-6.171076e+03	0.000000e+00	1.061654e+04	-6.082875e+03	0.000000e+00	1.068627e+04	-6.344822e+03	0.000000e+00	1.547934e+04	-6.007495e+03	0.000000e+00
					1.239362e+04	-8.015408e+03	0.000000e+00	1.231714e+04	-8.236339e+03	0.000000e+00	1.259828e+04	-8.069267e+03	0.000000e+00	1.701531e+04	4.509240e+02	0.000000e+00
					1.277290e+04	-3.855596e+03	0.000000e+00	1.248342e+04	-4.291681e+03	0.000000e+00	1.951687e+04	4.566190e+02	0.000000e+00	1.409639e+04	-3.762137e+03	0.000000e+00
					1.395297e+04	-3.853813e+03	0.000000e+00	1.426096e+04	-3.882789e+03	0.000000e+00	1.412655e+04	-4.015160e+03	0.000000e+00	1.454529e+04	-4.454906e+03	0.000000e+00
					1.477335e+04	-4.577894e+03	0.000000e+00	1.473337e+04	-4.284850e+03	0.000000e+00	1.486818e+04	-4.392328e+03	0.000000e+00	1.182077e+04	-6.079763e+03	0.000000e+00
					1.161805e+04	-6.234353e+03	0.000000e+00	1.190807e+04	-6.249025e+03	0.000000e+00	1.174207e+04	-6.340720e+03	0.000000e+00	1.216930e+04	-5.632604e+03	0.000000e+00
					1.242431e+04	-5.486649e+03	0.000000e+00	1.241345e+04	-5.774949e+03	0.000000e+00	1.249642e+04	-5.631837e+03	0.000000e+00	1.225177e+04	-5.774741e+03	0.000000e+00
					1.257980e+04	-5.777980e+03	0.000000e+00	1.225809e+04	-5.482228e+03	0.000000e+00	1.256570e+04	-5.502870e+03	0.000000e+00	1.238428e+04	-6.062964e+03	0.000000e+00
					1.282796e+04	-5.599574e+03	0.000000e+00	1.196367e+04	-6.067125e+03	0.000000e+00	1.167268e+04	-6.097839e+03	0.000000e+00	1.277630e+04	-6.604007e+03	0.000000e+00
					1.252397e+04	-6.308287e+03	0.000000e+00	1.280518e+04	-6.343281e+03	0.000000e+00	1.265315e+04	-6.346342e+03	0.000000e+00	1.271475e+04	-6.477527e+03	0.000000e+00
					1.263261e+04	-6.625855e+03	0.000000e+00	1.667927e+04	4.741056e+02	0.000000e+00	1.612116e+04	5.619883e+02	0.000000e+00	1.487289e+04	5.672211e+02	0.000000e+00
					1.548362e+04	5.952377e+02	0.000000e+00	1.585212e+04	5.965489e+02	0.000000e+00	1.757404e+04	5.394732e+02	0.000000e+00	1.743589e+04	4.800519e+02	0.000000e+00
					1.795083e+04	4.435474e+02	0.000000e+00	1.049310e+04	6.378382e+02	0.000000e+00	9.219915e+03	4.816059e+02	0.000000e+00	1.511397e+04	-4.544577e+03	0.000000e+00
					1.494532e+04	-4.564542e+03	0.000000e+00	1.454020e+04	-4.749504e+03	0.000000e+00	1.486489e+04	-4.724778e+03	0.000000e+00	1.460243e+04	-4.599803e+03	0.000000e+00
					1.446230e+04	-4.653005e+03	0.000000e+00	1.489979e+04	-3.662624e+03	0.000000e+00	1.534625e+04	-4.286436e+03	0.000000e+00	1.518403e+04	-4.162332e+03	0.000000e+00
[...]
			<PointData Scalars="bulk fluid density">
				<DataArray type="Float64" Name="bulk fluid density" NumberOfComponents="1" format="ascii">
					1.460308e+02	1.017946e+02	8.743504e+02	1.000513e+03	5.622864e+02	9.838500e+02	9.780928e+02	1.446413e+02
					3.281082e+02	4.097270e+02	4.059049e+02	4.007912e+02	3.908362e+02	3.969504e+02	3.902798e+02	3.656371e+02	9.999888e+02
					1.977384e+02	9.925125e+02	9.993922e+02	9.930412e+02	9.939158e+02	2.970363e+02	1.003635e+03	1.000750e+03	9.998472e+02
					2.766319e+02	9.996150e+02	9.995587e+02	9.997542e+02	3.142625e+02	1.949110e+02	1.549742e+02	9.998773e+02	9.998141e+02
					1.000020e+03	9.997953e+02	1.000394e+03	1.000317e+03	1.628842e+02	1.075041e+02	1.002713e+03	9.995470e+02	9.995705e+02
					1.000083e+03	1.042375e+02	9.981960e+02	4.254803e+02	9.996056e+02	9.999605e+02	9.991323e+02	4.238875e+02	1.136475e+02
					9.997933e+02	9.998950e+02	1.079566e+02	9.992611e+02	9.995324e+02	9.999216e+02	1.667341e+02	1.541640e+02	9.999404e+02
					9.998625e+02	9.960152e+02	1.000068e+03	9.998339e+02	9.999620e+02	9.996193e+02	2.526284e+02	1.034684e+02	2.372932e+02
					2.571823e+02	2.363470e+02	2.510275e+02	3.993016e+02	3.835115e+02	3.922956e+02	3.917400e+02	3.977664e+02	3.914331e+02
					4.426935e+02	4.434316e+02	3.130968e+02	4.446788e+02	4.427798e+02	4.491539e+02	4.356047e+02	4.338015e+02	3.187902e+02
					9.996959e+02	2.496183e+02	2.387128e+02	2.293436e+02	3.125618e+02	3.170872e+02	9.993180e+02	9.994981e+02	9.997557e+02
					9.998803e+02	9.996023e+02	3.622705e+02	3.541857e+02	3.445182e+02	2.753572e+02	2.912683e+02	1.132809e+02	3.649113e+02
					3.545214e+02	3.568961e+02	3.437823e+02	3.193763e+02	3.107490e+02	3.209548e+02	3.281801e+02	3.508277e+02	3.425657e+02
					3.178284e+02	3.321239e+02	3.200358e+02	3.286074e+02	2.875297e+02	9.997960e+02	9.439766e+01	4.105280e+02	4.177951e+02
					4.142469e+02	4.236957e+02	4.099215e+02	4.145372e+02	4.215721e+02	4.611822e+02	4.457774e+02	3.186946e+02	4.579632e+02
					4.691669e+02	4.628026e+02	3.439200e+02	3.614915e+02	3.531548e+02	3.182739e+02	3.086209e+02	3.143411e+02	3.271482e+02
					4.215712e+02	4.629553e+02	4.324622e+02	3.010849e+02	4.416556e+02	4.487807e+02	4.427311e+02	4.325826e+02	4.382237e+02
					3.428375e+02	3.964158e+02	3.827570e+02	3.900382e+02	3.904502e+02	4.225870e+02	4.098952e+02	4.164228e+02	9.985959e+02
					9.993877e+02	9.958055e+02	9.988738e+02	2.901087e+02	3.460781e+02	1.340249e+02	2.517285e+02	1.056129e+02	2.405714e+02
					1.055955e+02	2.789458e+02	1.130479e+02	1.134741e+02	2.885956e+02	3.812306e+02	1.450231e+02	1.395806e+02	1.640170e+02
					3.799481e+02	4.622286e+02	4.349247e+02	4.644521e+02	9.990912e+02	2.492280e+02	2.750431e+02	9.996232e+02	2.393441e+02
					2.495376e+02	2.501839e+02	2.592668e+02	2.854998e+02	2.928555e+02	2.754555e+02	2.818599e+02	3.836014e+02	3.911677e+02
					3.919050e+02	3.959577e+02	3.553981e+02	3.465599e+02	3.643565e+02	3.554977e+02	3.642738e+02	3.646119e+02	3.462134e+02
					3.476138e+02	3.827742e+02	3.536165e+02	3.828424e+02	3.846776e+02	4.075544e+02	3.947541e+02	3.963873e+02	3.964827e+02
					4.022248e+02	4.084445e+02	9.993856e+02	9.998627e+02	9.994295e+02	9.996071e+02	9.998201e+02	9.995218e+02	9.995827e+02
					1.000009e+03	9.989795e+02	1.000081e+03	2.908703e+02	2.920957e+02	3.029934e+02	3.015913e+02	2.941166e+02	2.972321e+02
					1.607363e+02	1.138183e+02	1.097971e+02	1.052309e+02	1.087417e+02	1.708619e+02	1.122586e+02	2.708611e+02	2.547401e+02
					2.742278e+02	2.363270e+02	1.154316e+02	2.768005e+02	2.667027e+02	2.696798e+02	2.582840e+02	2.426602e+02	2.611221e+02
					2.431892e+02	2.557000e+02	9.811631e+01	2.352983e+02	2.787576e+02	2.625554e+02	2.589613e+02	2.782261e+02	2.711090e+02
					2.819960e+02	9.987491e+02	9.997397e+02	9.997951e+02	2.937376e+02	3.028042e+02	3.106791e+02	1.140478e+02	2.582197e+02
					2.671027e+02	2.576770e+02	2.404707e+02	1.141889e+02	9.691919e+01	9.365191e+01	2.393558e+02	2.247685e+02	3.035788e+02
					2.981432e+02	4.664103e+02	4.625651e+02	4.671981e+02	4.617460e+02	4.588833e+02	4.203610e+02	2.946993e+02	4.148888e+02
					4.117222e+02	3.592694e+02	3.726087e+02	3.822439e+02	3.711009e+02	3.980663e+02	4.054473e+02	3.968592e+02	3.810496e+02
					3.745021e+02	3.731371e+02	3.637389e+02	3.840979e+02	3.986919e+02	4.072335e+02	3.991127e+02	1.692929e+02	1.520319e+02
					1.289223e+02	1.214202e+02	3.182345e+02	1.182373e+02	3.112988e+02	3.231204e+02	1.313758e+02	1.323154e+02	1.281723e+02
					1.183425e+02	1.357896e+02	2.850943e+02	2.916776e+02	3.073246e+02	1.166939e+02	2.690964e+02	2.778024e+02	2.570588e+02
					9.820530e+01	1.095100e+02	1.570142e+02	2.534520e+02	2.733838e+02	1.124442e+02	2.661405e+02	2.713764e+02	1.506235e+02
					1.105651e+02	1.084577e+02	3.812660e+02	1.472497e+02	1.534340e+02	3.587251e+02	3.347026e+02	1.451272e+02	2.729511e+02
					2.834135e+02	2.821888e+02	2.733021e+02	2.738777e+02	2.556128e+02	2.654450e+02	2.633233e+02	9.951599e+02	9.992269e+02
					9.983414e+02	9.980854e+02	9.873616e+02	9.941950e+02	9.987960e+02	1.000470e+03	9.989556e+02	9.968085e+02	4.627594e+02
					4.211422e+02	3.827699e+02	3.799425e+02	3.588206e+02	3.688150e+02	3.864866e+02	3.718479e+02	3.636672e+02	3.980714e+02
					3.975685e+02	4.034798e+02	4.051530e+02	4.085762e+02	3.826232e+02	3.831263e+02	3.624060e+02	3.628679e+02	3.728188e+02
					3.624422e+02	3.952600e+02	3.982139e+02	4.103492e+02	4.109037e+02	3.984681e+02	4.031387e+02	4.047000e+02	4.108728e+02
					1.149504e+02	1.820195e+02	1.494701e+02	1.600139e+02	3.952535e+02	3.703854e+02	3.847359e+02	1.596524e+02	1.320499e+02
					1.301911e+02	1.351329e+02	1.313511e+02	1.323563e+02	3.552372e+02	1.447553e+02	1.371066e+02	3.699917e+02	3.751067e+02
					3.703226e+02	1.607006e+02	4.416261e+02	4.480338e+02	4.351398e+02	4.487432e+02	4.481409e+02	4.365190e+02	4.385193e+02
					4.489796e+02	4.554244e+02	4.609260e+02	4.487071e+02	4.533894e+02	4.377405e+02	4.586299e+02	4.579245e+02	4.035026e+02
					4.330053e+02	4.365502e+02	4.239128e+02	4.376816e+02	4.396582e+02	4.287735e+02	4.285893e+02	4.224504e+02	4.162307e+02
					4.231815e+02	4.181713e+02	4.108709e+02	4.099447e+02	2.877841e+02	3.984581e+02	1.616423e+02	4.132701e+02	4.075759e+02
					4.020050e+02	4.036107e+02	4.088747e+02	3.951052e+02	3.909848e+02	4.167443e+02	4.234808e+02	2.906266e+02	4.289478e+02
					4.366648e+02	4.239906e+02	4.273377e+02	4.218383e+02	4.168624e+02	4.196689e+02	4.137624e+02	3.986500e+02	4.107252e+02
					4.067695e+02	4.159154e+02	4.216646e+02	4.274632e+02	4.137182e+02	4.364294e+02	4.332641e+02	4.248285e+02	3.255774e+02
					3.265724e+02	3.377436e+02	3.435724e+02	3.339576e+02	3.836384e+02	3.860577e+02	3.736128e+02	3.739348e+02	3.641371e+02
					3.792334e+02	3.639506e+02	3.650137e+02	3.262148e+02	2.901414e+02	2.874507e+02	3.055444e+02	2.947065e+02	2.982935e+02
					2.887089e+02	3.064498e+02	3.028564e+02	3.454652e+02	3.333642e+02	3.241685e+02	3.348682e+02	3.442612e+02	3.258772e+02
					3.220089e+02	3.650352e+02	3.573483e+02	3.623807e+02	3.704191e+02	3.771660e+02	3.717688e+02	3.436201e+02	3.443039e+02
					3.609986e+02	3.441009e+02	3.286956e+02	3.355966e+02	3.459790e+02	3.274629e+02	3.277112e+02	3.369570e+02	3.460539e+02
					3.365423e+02	3.279689e+02	3.625330e+02	3.722606e+02	3.663505e+02	3.878991e+02	3.734377e+02	3.811389e+02	3.695309e+02
					3.859625e+02	3.782323e+02	3.821347e+02	2.926430e+02	3.091403e+02	3.006194e+02	2.902327e+02	3.095525e+02	2.996732e+02
					3.100602e+02	2.920263e+02	1.491829e+02	4.091261e+02	3.900853e+02	1.224069e+02	4.032294e+02	3.984996e+02	3.959841e+02
					2.719319e+02	4.125410e+02	4.238153e+02	4.298074e+02	4.359995e+02	4.241139e+02	4.356504e+02	4.471550e+02	4.354454e+02
					4.477206e+02	4.226347e+02	4.167313e+02	4.237778e+02	4.171649e+02	4.114417e+02	4.104233e+02	4.234361e+02	4.474032e+02
					4.596270e+02	4.542550e+02	4.480724e+02	4.556638e+02	4.580829e+02	4.529486e+02	4.294346e+02	4.229009e+02	4.271245e+02
					4.308028e+02	4.365678e+02	4.670315e+02	4.644235e+02	4.625413e+02	4.624268e+02	4.669995e+02	2.967569e+02	4.603604e+02
					4.681707e+02	3.105759e+02	4.674507e+02	4.680245e+02	4.645151e+02	4.674681e+02	4.670940e+02	4.531685e+02	4.478146e+02
					4.614545e+02	4.592287e+02	4.463574e+02	4.578576e+02	4.492302e+02	4.464773e+02	4.542568e+02	4.254927e+02	4.356245e+02
					4.320994e+02	4.286746e+02	4.242827e+02	4.348086e+02	4.364790e+02	4.118126e+02	3.979815e+02	4.038352e+02	4.147810e+02
					3.981723e+02	4.397934e+02	3.468860e+02	4.462279e+02	4.485150e+02	4.450279e+02	3.395001e+02	3.570220e+02	3.140729e+02
					4.176458e+02	4.187957e+02	4.113640e+02	4.239995e+02	4.301967e+02	1.537747e+02	4.167140e+02	3.968736e+02	4.361933e+02
					4.195000e+02	4.156987e+02	4.197581e+02	4.567454e+02	4.440630e+02	4.554236e+02	4.504316e+02	4.562209e+02	4.434088e+02
					4.308644e+02	4.359744e+02	4.245330e+02	4.276335e+02	4.347847e+02	4.227646e+02	4.311705e+02	4.340339e+02	1.244897e+02
					9.837152e+01	2.218439e+02	2.384224e+02	9.859928e+01	9.996990e+02	9.977466e+01	9.994618e+02	9.997352e+02	9.995638e+02
					9.995603e+02	9.994653e+02	1.001837e+03	1.001837e+03	1.002071e+03	1.002451e+03	1.002444e+03	9.807990e+02	9.971688e+02
					9.997680e+02	2.210389e+02	2.190189e+02	2.622727e+02	2.646149e+02	9.996197e+02	1.001268e+03	9.836313e+02	1.000890e+03
					9.998761e+02	2.551409e+02	2.714542e+02	2.656323e+02	2.360324e+02	2.187110e+02	2.348761e+02	9.766173e+01	9.691547e+01
					9.547148e+01	1.085528e+02	2.913381e+02	2.734103e+02	2.805443e+02	2.835022e+02	2.751375e+02	2.956383e+02	1.439920e+02
					1.593213e+02	1.223987e+02	3.435388e+02	3.373288e+02	3.107755e+02	3.251989e+02	1.245045e+02	3.443510e+02	3.291215e+02
					3.081242e+02	3.000761e+02	3.116604e+02	2.941555e+02	2.704208e+02	2.869098e+02	2.765755e+02	2.816438e+02	2.738170e+02
					2.939896e+02	2.752138e+02	2.876844e+02	2.762861e+02	2.565609e+02	2.641027e+02	2.727193e+02	2.664837e+02	2.854004e+02
					3.068277e+02	2.888389e+02	2.931900e+02	3.112093e+02	2.962758e+02	3.397336e+02	3.248607e+02	3.833449e+02	3.631550e+02
					3.437446e+02	3.274577e+02	2.877129e+02	3.051340e+02	2.905838e+02	2.956371e+02	3.080957e+02	3.448164e+02	3.532200e+02
					3.512531e+02	3.445557e+02	3.632115e+02	3.842659e+02	3.362132e+02	3.442328e+02	3.254377e+02	3.356404e+02	3.238673e+02
					3.284796e+02	3.439931e+02	3.265435e+02	3.450748e+02	3.363151e+02	3.284929e+02	3.325944e+02	3.053187e+02	3.140861e+02
					2.984258e+02	3.050180e+02	2.911142e+02	3.090515e+02	3.138344e+02	3.192867e+02	3.117933e+02	3.374591e+02	3.471390e+02
					3.455707e+02	3.447770e+02	3.506829e+02	3.671319e+02	3.638683e+02	3.837499e+02	1.167256e+02	1.512422e+02	3.004032e+02
					2.837576e+02	3.046935e+02	3.116041e+02	3.508472e+02	3.652934e+02	3.518707e+02	3.488055e+02	3.604492e+02	3.296771e+02
					3.217502e+02	3.441541e+02	3.327734e+02	3.495665e+02	3.335621e+02	3.374134e+02	3.451141e+02	9.994802e+02	9.996787e+02
					9.978259e+02	9.998000e+02	9.998388e+02	9.994478e+02	9.985598e+02	9.993589e+02	9.996050e+02	9.994857e+02	9.993569e+02
					9.997117e+02	9.994742e+02	9.994835e+02	9.996910e+02	9.997158e+02	9.996234e+02	2.893852e+02	2.959947e+02	3.086699e+02
					3.117602e+02	3.290933e+02	3.112426e+02	3.288161e+02	3.182579e+02	3.203015e+02	3.370726e+02	3.443751e+02	3.296066e+02
					3.368072e+02	3.314920e+02	3.075770e+02	3.283829e+02	3.101262e+02	3.207192e+02	2.336449e+02	2.320249e+02	2.179116e+02
					9.456018e+01	2.533390e+02	2.455639e+02	2.338200e+02	2.468189e+02	2.527579e+02	2.560856e+02	2.621650e+02	2.689843e+02
					9.994565e+02	4.526610e+02	4.573745e+02	4.450760e+02	4.428780e+02	4.400523e+02	4.478363e+02	4.413906e+02	4.392692e+02
					4.672919e+02	4.388513e+02	4.357425e+02	4.490639e+02	4.504663e+02	4.422676e+02	4.413731e+02	3.015613e+02	4.481559e+02
					4.334101e+02	4.257003e+02	4.379749e+02	4.304607e+02	4.481985e+02	3.909642e+02	3.860040e+02	3.855015e+02	3.804736e+02
					3.917597e+02	3.981962e+02	3.905532e+02	1.623203e+02	3.839392e+02	3.992471e+02	3.915300e+02	4.002251e+02	3.832244e+02
					3.893709e+02	3.614885e+02	4.123291e+02	4.594644e+02	2.407362e+02	2.599205e+02	2.527023e+02	9.998032e+02	4.046752e+02
					4.016283e+02	4.093823e+02	3.967019e+02	3.992674e+02	4.036714e+02	6.955950e+02	7.294329e+02	7.039054e+02	9.593658e+02
					9.443946e+02	9.501824e+02	9.739122e+02	9.561496e+02	9.478797e+02	9.556131e+02	9.679858e+02	9.872569e+02	9.919606e+02
					9.854531e+02	9.800187e+02	8.159028e+02	7.862603e+02	8.344706e+02	8.133844e+02	9.751423e+02	9.520231e+02	9.361118e+02
					1.000386e+03	9.448569e+02	7.994873e+02	8.032515e+02	7.607307e+02	1.000135e+03	9.997136e+02	1.000946e+03	9.264499e+02
					9.475530e+02	9.144751e+02	2.659568e+02	9.881359e+01	2.504757e+02	9.016186e+02	9.503853e+02	9.187981e+02	5.852414e+02
					5.448808e+02	5.588317e+02	5.026220e+02	2.666909e+02	2.684489e+02	2.680913e+02	2.909763e+02	2.714131e+02	2.696031e+02
					4.059865e+02	3.722328e+02	3.929670e+02	3.917027e+02	2.668722e+02	2.621848e+02	3.003666e+02	2.950136e+02	1.953288e+02
					8.109889e+02	8.063895e+02	7.879455e+02	8.312894e+02	8.022654e+02	8.114691e+02	7.824145e+02	8.362882e+02	7.302032e+02
					5.974804e+02	4.611509e+02	1.996508e+02	2.926887e+02	3.696804e+02	8.088764e+02	7.863433e+02	7.942116e+02	8.849486e+02
					8.997846e+02	8.691602e+02	2.491100e+02	1.364477e+02	4.757573e+02	3.855959e+02	7.280566e+02	6.853335e+02	8.683127e+02
					8.850369e+02	7.071682e+02	7.383020e+02	6.697259e+02	8.006630e+02	2.903205e+02	4.989657e+02	3.674612e+02	6.866040e+02
					7.041877e+02	3.015963e+02	2.822343e+02	3.048287e+02	2.751360e+02	3.598959e+02	4.066549e+02	4.009771e+02	3.114612e+02
					3.242729e+02	3.447596e+02	3.524627e+02	2.768755e+02	3.022096e+02	2.715431e+02	3.929187e+02	3.905752e+02	4.320936e+02
					4.426704e+02	4.390691e+02	4.551624e+02	4.281808e+02	2.716107e+02	4.587304e+02	2.707936e+02	4.415200e+02	4.413211e+02
					4.514910e+02	3.218671e+02	2.739543e+02	2.779158e+02	2.663190e+02	2.754925e+02	3.004439e+02	3.866143e+02	4.033862e+02
					3.604811e+02	3.377881e+02	3.765487e+02	3.644316e+02	4.144657e+02	3.996523e+02	4.011320e+02	3.744249e+02	3.761119e+02
					3.418216e+02	9.853057e+02	1.001905e+03	9.985141e+02	1.002767e+03	8.827816e+02	8.063784e+02	7.238490e+02	8.520637e+02
					9.996146e+02	1.000773e+03	9.995702e+02	9.891545e+02	1.000216e+03	9.714181e+02	9.868542e+02	9.126968e+02	8.416547e+02
					8.611708e+02	8.183216e+02	8.742423e+02	8.592026e+02	8.757591e+02	9.998665e+02	9.968817e+02	1.000856e+03	9.977498e+02
					2.592123e+02	2.424454e+02	2.121868e+02	3.262770e+02	6.488354e+02	6.640103e+02	7.527917e+02	7.110909e+02	5.093423e+02
					3.186425e+02	3.368192e+02	3.201920e+02	3.002542e+02	9.988547e+02	9.744063e+02	8.744855e+02	9.352658e+02	1.000434e+03
					9.865575e+02	1.002526e+03	9.607629e+02	9.548107e+02	8.883614e+02	8.759166e+02	8.889532e+02	8.732431e+02	8.883790e+02
					9.016047e+02	8.883905e+02	9.921671e+02	9.753220e+02	9.893594e+02	9.524484e+02	9.617209e+02	9.510118e+02	9.345907e+02
					9.932903e+02	9.901005e+02	9.840956e+02	9.841281e+02	8.946825e+02	9.145166e+02	8.961904e+02	8.092276e+02	7.822805e+02
					8.116249e+02	8.349644e+02	7.249872e+02	7.047319e+02	6.560659e+02	6.869066e+02	7.882378e+02	8.119885e+02	8.274146e+02
					8.153948e+02	9.159724e+02	8.815475e+02	8.947360e+02	8.751565e+02	1.001774e+03	1.000661e+03	7.070929e+02	7.266964e+02
					9.449379e+02	8.914466e+02	8.993433e+02	9.996956e+02	1.000690e+03	9.900665e+02	9.829242e+02	9.133428e+02	8.759849e+02
					9.345674e+02	9.026854e+02	9.984796e+02	9.990559e+02	9.975071e+02	9.740981e+02	9.709358e+02	9.821755e+02	9.976305e+02
					9.884810e+02	9.892347e+02	1.000305e+03	9.749566e+02	9.521294e+02	9.650211e+02	9.962550e+02	9.855854e+02	9.409695e+02
					9.539363e+02	8.804941e+02	8.648828e+02	9.053004e+02	8.880692e+02	9.390520e+02	9.751011e+02	1.002071e+03	9.492123e+02
					8.010364e+02	7.584322e+02	8.453172e+02	4.057337e+02	2.796269e+02	7.569476e+02	6.203823e+02	5.578098e+02	4.049371e+02
					6.797144e+02	5.988994e+02	6.302259e+02	6.747289e+02	5.333055e+02	4.440130e+02	4.957614e+02	3.966947e+02	4.500864e+02
					3.463576e+02	4.610411e+02	4.192041e+02	5.182145e+02	4.921400e+02	4.791744e+02	4.472290e+02	5.419313e+02	3.299249e+02
					5.799715e+02	6.133410e+02	3.353916e+02	3.157067e+02	4.763893e+02	4.389050e+02	2.302747e+02	2.861242e+02	7.413198e+02
					8.267360e+02	9.017045e+02	3.827243e+02	6.715056e+02	6.209589e+02	6.425974e+02	6.683503e+02	7.256387e+02	8.129993e+02
					5.887516e+02	8.651589e+02	7.477960e+02	8.492029e+02	8.802264e+02	8.459135e+02	7.539092e+02	9.552631e+02	9.591329e+02
					8.793743e+02	9.586551e+02	7.270948e+02	9.183421e+02	6.813368e+02	8.413727e+02	7.250798e+02	9.681776e+02	9.566432e+02
					9.137420e+02	9.023598e+02	9.559736e+02	9.331412e+02	9.390859e+02	9.096076e+02	9.185167e+02	9.171674e+02	9.048283e+02
					9.830589e+02	9.873359e+02	9.958465e+02	9.866006e+02	9.913873e+02	9.358996e+02	9.953306e+02	9.986504e+02	9.884465e+02
					9.690295e+02	9.635038e+02	9.753417e+02	9.746227e+02	9.792700e+02	9.627885e+02	9.690589e+02	9.423125e+02	9.452872e+02
					1.001418e+03	9.847670e+02	9.994532e+02	9.948996e+02	9.805717e+02	9.821095e+02	9.775763e+02	9.847510e+02	9.624591e+02
					9.970223e+02	9.975171e+02	9.969750e+02	9.349562e+02	9.798148e+02	9.954137e+02	9.424785e+02	9.357570e+02	8.713489e+02
					8.286573e+02	9.322072e+02	8.904985e+02	9.183282e+02	9.349003e+02	9.313933e+02	9.687251e+02	9.872833e+02	9.507811e+02
					9.623263e+02	1.001269e+03	1.000460e+03	1.001554e+03	9.966351e+02	1.000752e+03	1.000060e+03	9.864921e+02	8.469121e+02
					8.404702e+02	8.667266e+02	8.881373e+02	8.606021e+02	7.340493e+02	7.837454e+02	7.710042e+02	7.381749e+02	7.656862e+02
					7.398300e+02	8.804064e+02	8.476600e+02	8.804533e+02	8.338371e+02	8.643627e+02	8.203567e+02	8.565603e+02	8.397131e+02
					8.343998e+02	8.460565e+02	8.240645e+02	7.958082e+02	7.655210e+02	7.932976e+02	7.458654e+02	7.991839e+02	7.921557e+02
					8.289248e+02	8.126746e+02	8.116712e+02	7.979190e+02	8.845582e+02	6.778314e+02	7.253169e+02	7.025764e+02	6.814424e+02
					5.864631e+02	6.608294e+02	6.373812e+02	7.134458e+02	7.778788e+02	7.308783e+02	7.802184e+02	7.503941e+02	7.456218e+02
					7.932681e+02	8.783007e+02	8.411612e+02	8.728076e+02	8.247302e+02	9.658863e+02	1.001564e+03	9.919162e+02	9.998045e+02
					1.001796e+03	9.965770e+02	1.000650e+03	9.838668e+02	9.923008e+02	1.000918e+03	9.997813e+02	1.000285e+03	9.566797e+02
					9.002772e+02	8.734474e+02	7.918419e+02	8.385584e+02	7.640889e+02	7.833790e+02	7.370687e+02	6.630493e+02	6.350874e+02
					6.428914e+02	6.839332e+02	7.355407e+02	6.725912e+02	7.307985e+02	8.830727e+02	8.549887e+02	8.386404e+02	7.857175e+02
					8.043115e+02	9.128019e+02	8.725798e+02	7.855017e+02	7.576231e+02	7.280640e+02	8.763069e+02	8.375008e+02	8.575098e+02
					8.775938e+02	8.361195e+02	8.558906e+02	8.984706e+02	9.212903e+02	9.274457e+02	9.184446e+02	8.998348e+02	9.139261e+02
					9.268932e+02	9.316949e+02	9.161459e+02	8.596508e+02	8.369164e+02	8.207076e+02	8.488640e+02	8.655943e+02	8.267795e+02
					9.956938e+02	9.805421e+02	9.748660e+02	9.761314e+02	9.922126e+02	9.922517e+02	9.937736e+02	9.802924e+02	9.695409e+02
					9.882539e+02	9.940048e+02	9.833227e+02	9.823246e+02	9.922365e+02	9.571533e+02	9.644804e+02	9.763365e+02	9.403933e+02
					9.378636e+02	9.618867e+02	9.528743e+02	9.747100e+02	9.068600e+02	9.298962e+02	9.501174e+02	9.694741e+02	9.877540e+02
					9.954122e+02	9.086781e+02	9.564204e+02	9.073363e+02	8.623001e+02	9.095841e+02	9.095087e+02	8.303912e+02	9.092557e+02
					8.676309e+02	9.113989e+02	9.323445e+02	9.100424e+02	8.624316e+02	8.705886e+02	8.489366e+02	9.964806e+02	1.000384e+03
					9.994251e+02	9.742386e+02	9.912657e+02	9.845052e+02	9.827102e+02	9.735126e+02	9.892568e+02	9.939477e+02	9.423999e+02
					9.719795e+02	9.762290e+02	1.003153e+03	9.969854e+02	1.000790e+03	9.388163e+02	9.595342e+02	1.000519e+03	1.001124e+03
					1.000179e+03	1.001121e+03	9.964285e+02	1.000129e+03	9.997144e+02	1.000372e+03	1.000740e+03	1.000073e+03	9.921408e+02
					9.958061e+02	9.956500e+02	9.715398e+02	9.918834e+02	9.938074e+02	9.975645e+02	9.961720e+02	3.425399e+02	3.604660e+02