<?xml version="1.0"?>

<!--
CSMP_Simulation
-->

<VTKFile type="UnstructuredGrid" version="1.0" byte_order="LittleEndian">
	<UnstructuredGrid>
		<Piece NumberOfPoints="2922" NumberOfCells="5619">
			<Points>
				<DataArray type="Float64" Name="Position" NumberOfComponents="3" format="ascii">
					1.062348e+04	-6.219427e+03	0.000000e+00	1.328123e+04	-3.388001e+03	0.000000e+00	6.533000e+03	-2.871000e+03	0.000000e+00	8.993999e+03	3.450022e+02	0.000000e+00
					6.434000e+03	-6.251000e+03	0.000000e+00	6.415000e+03	-1.312000e+03	0.000000e+00	8.891000e+03	-1.610000e+02	0.000000e+00	1.593372e+04	-6.223812e+03	0.000000e+00
					1.243124e+04	-5.182061e+03	0.000000e+00	1.180818e+04	-6.661451e+03	0.000000e+00	1.199040e+04	-6.569837e+03	0.000000e+00	1.186573e+04	-6.450233e+03	0.000000e+00
					1.224666e+04	-6.222517e+03	0.000000e+00	1.208180e+04	-6.360720e+03	0.000000e+00	1.135568e+04	-6.216921e+03	0.000000e+00	1.177466e+04	-5.800292e+03	0.000000e+00
					1.484109e+03	2.369937e+02	0.000000e+00	1.048845e+04	-4.576829e+03	0.000000e+00	5.088007e+03	2.164612e+02	0.000000e+00	1.616065e+04	6.885872e+02	0.000000e+00
					5.856588e+03	2.844799e+02	0.000000e+00	5.964146e+03	2.322470e+02	0.000000e+00	1.285384e+04	-8.473227e+03	0.000000e+00	6.554646e+03	2.976259e+02	0.000000e+00
					6.220259e+03	3.810972e+02	0.000000e+00	2.455667e+03	2.604214e+02	0.000000e+00	1.185441e+04	-8.594387e+03	0.000000e+00	8.953729e+02	2.424411e+02	0.000000e+00
					1.642061e+04	5.389531e+02	0.000000e+00	9.022812e+03	5.486281e+02	0.000000e+00	1.072547e+04	-4.265213e+03	0.000000e+00	1.596156e+04	-4.568462e+03	0.000000e+00
					1.049681e+04	-6.339904e+03	0.000000e+00	1.229884e+04	9.679014e+02	0.000000e+00	1.346081e+04	9.303555e+02	0.000000e+00	7.674576e+03	2.576962e+02	0.000000e+00
					8.121128e+03	2.577928e+02	0.000000e+00	8.390419e+03	2.530714e+02	0.000000e+00	1.759058e+04	3.107264e+02	0.000000e+00	1.283469e+04	-3.190105e+03	0.000000e+00
					1.310544e+04	-3.163050e+03	0.000000e+00	6.218396e+03	2.847346e+02	0.000000e+00	1.964998e+04	3.306567e+02	0.000000e+00	1.089832e+04	6.517557e+02	0.000000e+00
					9.482042e+03	5.002750e+02	0.000000e+00	1.461891e+04	-3.601876e+03	0.000000e+00	1.694475e+04	2.822433e+02	0.000000e+00	1.223129e+04	-8.439639e+03	0.000000e+00
					7.092101e+03	3.133630e+02	0.000000e+00	7.447673e+03	2.954910e+02	0.000000e+00	5.479449e+03	3.927924e+02	0.000000e+00	1.430834e+04	-8.440884e+03	0.000000e+00
					1.346187e+04	-3.101654e+03	0.000000e+00	1.466219e+04	5.912805e+02	0.000000e+00	1.431424e+04	6.995984e+02	0.000000e+00	1.198158e+04	-3.600157e+03	0.000000e+00
					1.519729e+04	6.008027e+02	0.000000e+00	1.732254e+04	2.914492e+02	0.000000e+00	1.847268e+04	5.552377e+02	0.000000e+00	1.373014e+04	-3.092539e+03	0.000000e+00
					1.598609e+04	-4.803680e+03	0.000000e+00	1.811668e+03	2.957238e+02	0.000000e+00	2.068111e+03	3.301681e+02	0.000000e+00	3.593477e+02	6.241832e-01	0.000000e+00
					1.315684e+04	9.290093e+02	0.000000e+00	9.757773e+03	6.136685e+02	0.000000e+00	1.013994e+04	6.394650e+02	0.000000e+00	9.949611e+03	7.276424e+02	0.000000e+00
					1.479179e+04	-3.977888e+03	0.000000e+00	1.474764e+04	-3.691732e+03	0.000000e+00	1.224233e+04	-3.775151e+03	0.000000e+00	1.235721e+04	-3.992361e+03	0.000000e+00
					1.239488e+04	-3.732875e+03	0.000000e+00	1.247959e+04	-3.889221e+03	0.000000e+00	1.489970e+04	-6.402044e+03	0.000000e+00	1.471371e+04	-6.063480e+03	0.000000e+00
					1.503558e+04	-6.243497e+03	0.000000e+00	1.463383e+04	-6.231790e+03	0.000000e+00	1.359516e+04	-6.370837e+03	0.000000e+00	1.336635e+04	-6.229341e+03	0.000000e+00
					1.486979e+04	-7.470250e+03	0.000000e+00	1.455711e+04	-7.489929e+03	0.000000e+00	1.120299e+04	-4.942350e+03	0.000000e+00	1.218357e+04	-7.531530e+03	0.000000e+00
					1.251446e+04	-7.480192e+03	0.000000e+00	1.240108e+04	-7.647510e+03	0.000000e+00	1.239322e+04	-7.293615e+03	0.000000e+00	1.368325e+04	-7.242141e+03	0.000000e+00
					1.217897e+04	-5.028812e+03	0.000000e+00	1.378964e+04	8.854108e+02	0.000000e+00	1.351945e+04	-3.856343e+03	0.000000e+00	1.333151e+04	-3.674419e+03	0.000000e+00
					1.350782e+04	-3.520236e+03	0.000000e+00	1.479244e+04	-4.909493e+03	0.000000e+00	1.380050e+04	-4.989557e+03	0.000000e+00	3.084262e+03	3.746820e+02	0.000000e+00
					3.006144e+03	2.572346e+02	0.000000e+00	1.252005e+03	2.691829e+02	0.000000e+00	1.642126e+03	2.829086e+02	0.000000e+00	8.235090e+03	4.169793e+02	0.000000e+00
					1.537108e+04	-5.728762e+03	0.000000e+00	1.550100e+04	-5.598568e+03	0.000000e+00	1.543359e+04	-5.440257e+03	0.000000e+00	1.516251e+04	-4.367050e+03	0.000000e+00
					1.542543e+04	-4.626431e+03	0.000000e+00	1.547978e+04	-4.435709e+03	0.000000e+00	1.421355e+04	-5.774419e+03	0.000000e+00	1.398427e+04	-5.607986e+03	0.000000e+00
					1.433859e+04	-5.644592e+03	0.000000e+00	1.422646e+04	-5.431404e+03	0.000000e+00	1.278519e+04	-5.034132e+03	0.000000e+00	1.297347e+04	-4.888217e+03	0.000000e+00
					1.308886e+04	-5.058455e+03	0.000000e+00	1.295570e+04	-5.179625e+03	0.000000e+00	1.371210e+04	-5.548806e+03	0.000000e+00	1.306586e+04	-5.417419e+03	0.000000e+00
					1.398961e+04	-5.001093e+03	0.000000e+00	1.423737e+04	-5.238687e+03	0.000000e+00	1.553662e+04	-5.035070e+03	0.000000e+00	1.541510e+04	-5.176839e+03	0.000000e+00
					1.433199e+04	-4.490070e+03	0.000000e+00	1.772795e+04	4.701005e+02	0.000000e+00	1.301714e+04	-3.340203e+03	0.000000e+00	1.291928e+04	-6.673458e+03	0.000000e+00
					1.305404e+04	-6.847013e+03	0.000000e+00	1.275393e+04	-6.763001e+03	0.000000e+00	1.299225e+04	-6.992535e+03	0.000000e+00	1.111766e+04	-6.671729e+03	0.000000e+00
					1.100675e+04	-6.816450e+03	0.000000e+00	1.117046e+04	-6.969377e+03	0.000000e+00	1.205000e+04	-8.078535e+03	0.000000e+00	1.184148e+04	-7.859306e+03	0.000000e+00
					1.196430e+04	-8.231484e+03	0.000000e+00	1.298170e+04	-7.885249e+03	0.000000e+00	1.295062e+04	-8.221395e+03	0.000000e+00	1.309178e+04	-8.017537e+03	0.000000e+00
					1.120470e+04	-5.453850e+03	0.000000e+00	1.115255e+04	-5.738876e+03	0.000000e+00	1.126426e+04	-5.604117e+03	0.000000e+00	1.184009e+04	-5.022972e+03	0.000000e+00
					1.172669e+04	-4.862486e+03	0.000000e+00	1.153323e+04	-4.959783e+03	0.000000e+00	1.175756e+04	-5.171477e+03	0.000000e+00	1.534244e+04	-6.934844e+03	0.000000e+00
					1.455437e+04	-8.098472e+03	0.000000e+00	1.476956e+04	-7.877258e+03	0.000000e+00	1.464624e+04	-8.340289e+03	0.000000e+00	1.404268e+04	-7.444684e+03	0.000000e+00
					1.421918e+04	-7.630822e+03	0.000000e+00	1.428388e+04	-7.472196e+03	0.000000e+00	1.526650e+04	-7.239097e+03	0.000000e+00	1.513630e+04	-7.368500e+03	0.000000e+00
					1.581589e+04	-5.652546e+03	0.000000e+00	1.296440e+04	-6.343040e+03	0.000000e+00	1.295470e+04	-6.059130e+03	0.000000e+00	1.303797e+04	-6.200013e+03	0.000000e+00
					1.273442e+04	-6.210589e+03	0.000000e+00	1.360396e+04	-6.962240e+03	0.000000e+00	1.362392e+04	-6.655270e+03	0.000000e+00	1.339020e+04	-6.812359e+03	0.000000e+00
					6.442692e+03	4.405175e+02	0.000000e+00	3.840145e+03	2.404374e+02	0.000000e+00	3.475756e+03	2.459832e+02	0.000000e+00	3.582548e+03	3.131050e+02	0.000000e+00
					1.179383e+04	-4.550717e+03	0.000000e+00	1.173986e+04	-5.484162e+03	0.000000e+00	1.062189e+04	-5.748233e+03	0.000000e+00	1.180024e+04	-3.998124e+03	0.000000e+00
					1.173389e+04	-3.844468e+03	0.000000e+00	1.197836e+04	-3.861204e+03	0.000000e+00	1.188099e+04	-3.736811e+03	0.000000e+00	1.137465e+04	-4.416604e+03	0.000000e+00
					1.124799e+04	-4.291994e+03	0.000000e+00	1.108948e+04	-4.439061e+03	0.000000e+00	1.120866e+04	-4.578218e+03	0.000000e+00	1.076080e+04	-6.185724e+03	0.000000e+00
					1.052158e+04	-6.171076e+03	0.000000e+00	1.061654e+04	-6.082875e+03	0.000000e+00	1.068627e+04	-6.344822e+03	0.000000e+00	1.547934e+04	-6.007495e+03	0.000000e+00
					1.239362e+04	-8.015408e+03	0.000000e+00	1.231714e+04	-8.236339e+03	0.000000e+00	1.259828e+04	-8.069267e+03	0.000000e+00	1.701531e+04	4.509240e+02	0.000000e+00
					1.277290e+04	-3.855596e+03	0.000000e+00	1.248342e+04	-4.291681e+03	0.000000e+00	1.951687e+04	4.566190e+02	0.000000e+00	1.409639e+04	-3.762137e+03	0.000000e+00
					1.395297e+04	-3.853813e+03	0.000000e+00	1.426096e+04	-3.882789e+03	0.000000e+00	1.412655e+04	-4.015160e+03	0.000000e+00	1.454529e+04	-4.454906e+03	0.000000e+00
					1.477335e+04	-4.577894e+03	0.000000e+00	1.473337e+04	-4.284850e+03	0.000000e+00	1.486818e+04	-4.392328e+03	0.000000e+00	1.182077e+04	-6.079763e+03	0.000000e+00
					1.161805e+04	-6.234353e+03	0.000000e+00	1.190807e+04	-6.249025e+03	0.000000e+00	1.174207e+04	-6.340720e+03	0.000000e+00	1.216930e+04	-5.632604e+03	0.000000e+00
					1.242431e+04	-5.486649e+03	0.000000e+00	1.241345e+04	-5.774949e+03	0.000000e+00	1.249642e+04	-5.631837e+03	0.000000e+00	1.225177e+04	-5.774741e+03	0.000000e+00
					1.257980e+04	-5.777980e+03	0.000000e+00	1.225809e+04	-5.482228e+03	0.000000e+00	1.256570e+04	-5.502870e+03	0.000000e+00	1.238428e+04	-6.062964e+03	0.000000e+00
					1.282796e+04	-5.599574e+03	0.000000e+00	1.196367e+04	-6.067125e+03	0.000000e+00	1.167268e+04	-6.097839e+03	0.000000e+00	1.277630e+04	-6.604007e+03	0.000000e+00
					1.500551e+04	-7.272801e+03	0.000000e+00	1.436310e+04	-7.629506e+03	0.000000e+00	1.405447e+04	-7.614436e+03	0.000000e+00	1.378616e+04	-7.311337e+03	0.000000e+00
					1.449798e+04	-7.361653e+03	0.000000e+00	1.450249e+04	-7.635568e+03	0.000000e+00	1.431253e+04	-7.811639e+03	0.000000e+00	1.414808e+04	-7.968868e+03	0.000000e+00
					1.487244e+04	-7.758708e+03	0.000000e+00	1.460617e+04	-7.765267e+03	0.000000e+00	1.424603e+04	-8.234521e+03	0.000000e+00	1.448709e+04	-7.900806e+03	0.000000e+00
					1.464000e+04	-7.940785e+03	0.000000e+00	1.490539e+04	-7.933881e+03	0.000000e+00	1.510985e+04	-7.219671e+03	0.000000e+00	1.487015e+04	-7.309580e+03	0.000000e+00
					1.490000e+04	-6.991785e+03	0.000000e+00	1.434632e+04	-7.340104e+03	0.000000e+00	1.461365e+04	-7.391157e+03	0.000000e+00	1.466017e+04	-7.113627e+03	0.000000e+00
					1.516388e+04	-7.108649e+03	0.000000e+00	1.519896e+04	-6.954921e+03	0.000000e+00	1.522463e+04	-6.802707e+03	0.000000e+00	1.504350e+04	-6.973318e+03	0.000000e+00
[...]
			<PointData Scalars="bulk fluid density">
				<DataArray type="Float64" Name="bulk fluid density" NumberOfComponents="1" format="ascii">
					2.119304e+02	6.159352e+02	9.608840e+02	9.801414e+02	6.250241e+02	9.897457e+02	8.906685e+02	2.193237e+02
					5.263400e+02	4.094948e+02	4.057245e+02	4.004159e+02	3.902780e+02	3.965916e+02	3.857369e+02	3.608945e+02	1.000002e+03
					5.446287e+02	9.853460e+02	9.993931e+02	9.607432e+02	9.560150e+02	3.259570e+02	9.721837e+02	9.907358e+02	9.998890e+02
					2.831350e+02	9.996272e+02	9.995661e+02	9.951668e+02	5.946512e+02	6.158539e+02	1.659915e+02	9.998767e+02	9.998144e+02
					9.919405e+02	9.882664e+02	9.934253e+02	1.000531e+03	6.335015e+02	6.736926e+02	9.763845e+02	1.000202e+03	9.993396e+02
					9.973142e+02	6.864271e+02	9.996692e+02	4.115589e+02	9.954348e+02	9.936755e+02	9.650542e+02	4.094864e+02	7.169108e+02
					9.997918e+02	9.998951e+02	4.833640e+02	9.992408e+02	1.000352e+03	9.999275e+02	7.383121e+02	5.369010e+02	9.999452e+02
					9.998665e+02	9.972560e+02	1.000068e+03	9.994599e+02	9.998635e+02	9.995931e+02	5.760802e+02	6.729049e+02	6.789845e+02
					7.209799e+02	7.030278e+02	6.491856e+02	3.959865e+02	3.767310e+02	3.875256e+02	3.911293e+02	3.975747e+02	3.910053e+02
					4.420970e+02	4.431946e+02	2.690464e+02	4.446167e+02	4.428031e+02	4.490744e+02	4.355682e+02	4.337751e+02	5.579001e+02
					9.996962e+02	7.734853e+02	6.797268e+02	5.795805e+02	5.923402e+02	5.417415e+02	9.993463e+02	9.997825e+02	9.997639e+02
					9.998866e+02	9.948130e+02	3.569929e+02	3.250541e+02	2.954460e+02	4.744345e+02	3.959354e+02	5.238948e+02	3.649350e+02
					3.552822e+02	5.216517e+02	5.270999e+02	5.241245e+02	5.355814e+02	5.157806e+02	5.039052e+02	3.504053e+02	3.425061e+02
					5.509846e+02	5.445740e+02	3.585028e+02	2.794060e+02	5.826172e+02	9.998396e+02	6.128518e+02	4.104771e+02	4.180842e+02
					4.141844e+02	4.240211e+02	4.046175e+02	4.007010e+02	4.142233e+02	4.416110e+02	4.380445e+02	3.355005e+02	4.578656e+02
					4.592347e+02	4.620845e+02	3.326310e+02	3.585644e+02	3.501599e+02	5.818655e+02	5.919527e+02	5.815144e+02	5.795552e+02
					4.159558e+02	4.467348e+02	4.400577e+02	3.198287e+02	4.416758e+02	4.487035e+02	4.427530e+02	4.267004e+02	4.347097e+02
					2.875773e+02	3.961958e+02	3.821699e+02	3.894657e+02	3.899122e+02	4.229997e+02	4.098451e+02	4.165517e+02	9.940130e+02
					1.000009e+03	9.997451e+02	9.995230e+02	5.772998e+02	3.485297e+02	2.336863e+02	5.832042e+02	4.572007e+02	3.836681e+02
					4.611172e+02	7.161743e+02	4.067016e+02	3.886398e+02	5.185938e+02	3.423994e+02	1.826147e+02	2.136419e+02	2.198913e+02
					3.762053e+02	4.595490e+02	4.423150e+02	4.616758e+02	9.994745e+02	6.679450e+02	5.737203e+02	9.996808e+02	5.648984e+02
					5.369642e+02	5.629415e+02	6.983588e+02	5.487975e+02	5.346932e+02	5.828733e+02	5.870618e+02	3.791352e+02	3.851623e+02
					3.913558e+02	3.954639e+02	5.152110e+02	4.710659e+02	3.639553e+02	3.550188e+02	3.641529e+02	3.642247e+02	5.168374e+02
					3.485888e+02	3.821010e+02	3.532234e+02	3.819770e+02	3.784803e+02	4.075496e+02	4.345232e+02	4.486252e+02	4.480896e+02
					4.364828e+02	4.382978e+02	4.484360e+02	4.549798e+02	4.591381e+02	4.439208e+02	4.511143e+02	4.426747e+02	4.561295e+02
					4.497159e+02	3.751256e+02	4.317133e+02	4.362700e+02	4.242102e+02	4.375382e+02	4.394687e+02	4.287163e+02	4.278870e+02
					4.222680e+02	4.135726e+02	4.234515e+02	3.944174e+02	3.961208e+02	3.961971e+02	4.020320e+02	4.084044e+02	9.994341e+02
					9.998649e+02	9.994261e+02	9.995924e+02	9.998205e+02	9.995314e+02	9.996562e+02	1.000036e+03	9.982150e+02	9.936163e+02
					6.600252e+02	6.168583e+02	5.958958e+02	5.599355e+02	5.780044e+02	5.938394e+02	7.042559e+02	5.596997e+02	5.765886e+02
					6.484224e+02	6.132390e+02	6.571461e+02	6.136343e+02	5.764950e+02	5.613181e+02	5.088031e+02	6.190063e+02	7.013468e+02
					5.488125e+02	6.746272e+02	6.409687e+02	7.481611e+02	6.161095e+02	6.316794e+02	5.980971e+02	7.667442e+02	6.275086e+02
					5.570396e+02	5.375674e+02	6.962455e+02	5.525756e+02	6.151610e+02	6.220122e+02	5.375942e+02	9.995868e+02	9.997522e+02
					9.998006e+02	5.737990e+02	5.620411e+02	5.547744e+02	4.538332e+02	6.703530e+02	5.540756e+02	6.856657e+02	7.052286e+02
					4.938092e+02	4.314044e+02	5.408364e+02	6.942696e+02	5.969148e+02	3.369957e+02	3.293895e+02	4.543653e+02	4.413434e+02
					4.535493e+02	4.549478e+02	4.583918e+02	3.739042e+02	3.092765e+02	4.147395e+02	4.114730e+02	4.890517e+02	3.691095e+02
					3.786566e+02	3.683947e+02	3.941285e+02	4.037101e+02	3.934269e+02	3.779829e+02	3.740052e+02	3.678294e+02	3.645329e+02
					3.833075e+02	3.983781e+02	4.070176e+02	3.987266e+02	1.771228e+02	1.933405e+02	2.737792e+02	4.137816e+02	2.971861e+02
					3.133406e+02	3.047459e+02	2.979520e+02	2.996323e+02	2.673462e+02	2.972903e+02	4.302339e+02	2.678160e+02	6.638940e+02
					4.529629e+02	2.827608e+02	4.017890e+02	6.577590e+02	7.056735e+02	7.192090e+02	3.985210e+02	4.016477e+02	5.296513e+02
					5.747764e+02	7.203994e+02	4.207744e+02	6.227539e+02	6.997086e+02	4.911093e+02	4.269392e+02	4.458783e+02	3.762589e+02
					2.109287e+02	2.418362e+02	3.223642e+02	2.617819e+02	5.307515e+02	5.498192e+02	5.694661e+02	5.790739e+02	5.804470e+02
					5.649472e+02	7.775909e+02	7.259842e+02	7.428685e+02	9.997386e+02	9.996535e+02	9.998404e+02	9.998445e+02	9.991870e+02
					9.592624e+02	9.884897e+02	9.824259e+02	9.733532e+02	9.816692e+02	4.568744e+02	4.218281e+02	3.821225e+02	3.794611e+02
					3.584275e+02	3.683916e+02	3.857308e+02	3.713936e+02	3.632827e+02	3.977670e+02	3.973149e+02	4.033442e+02	4.049445e+02
					4.085520e+02	3.820491e+02	3.825067e+02	3.620616e+02	3.625218e+02	3.724376e+02	3.620968e+02	3.950316e+02	3.980561e+02
					4.102957e+02	4.108346e+02	3.983198e+02	4.030156e+02	4.045808e+02	4.108043e+02	2.224195e+02	1.848675e+02	1.992045e+02
					2.116553e+02	3.841113e+02	3.109490e+02	3.772532e+02	2.441672e+02	2.639436e+02	3.321050e+02	3.083568e+02	3.313033e+02
					4.047044e+02	2.859222e+02	2.573826e+02	2.409873e+02	3.190897e+02	3.680033e+02	3.401411e+02	1.910237e+02	4.270034e+02
					4.439505e+02	4.181622e+02	4.087939e+02	4.061437e+02	3.057572e+02	3.536219e+02	2.307341e+02	4.023405e+02	3.952976e+02
					4.303210e+02	4.461738e+02	3.846452e+02	3.386167e+02	3.574671e+02	3.290395e+02	3.912906e+02	3.979630e+02	3.899806e+02
					5.153337e+02	3.817671e+02	3.988215e+02	3.910122e+02	3.956502e+02	3.782377e+02	3.858373e+02	3.586968e+02	4.121410e+02
					4.287772e+02	7.030083e+02	7.050934e+02	7.514110e+02	9.998029e+02	4.043985e+02	3.907302e+02	4.000093e+02	4.042966e+02
					3.912660e+02	3.751925e+02	3.925340e+02	4.081537e+02	2.547491e+02	4.289994e+02	4.366316e+02	4.241504e+02	4.272661e+02
					4.223053e+02	4.170730e+02	4.201378e+02	4.136917e+02	3.983448e+02	4.106027e+02	4.066038e+02	4.158371e+02	4.219403e+02
					4.273831e+02	4.135170e+02	4.363924e+02	4.332498e+02	4.250538e+02	5.117740e+02	5.142385e+02	5.075437e+02	3.445001e+02
					5.000118e+02	3.830016e+02	3.852687e+02	3.732246e+02	3.734919e+02	3.637526e+02	3.680798e+02	3.177265e+02	3.094728e+02
					2.587567e+02	7.367578e+02	5.406668e+02	5.402480e+02	5.584308e+02	6.670578e+02	6.953641e+02	3.848426e+02	5.817629e+02
					3.433248e+02	3.048272e+02	3.147040e+02	3.298777e+02	3.396209e+02	3.537150e+02	2.595887e+02	3.619057e+02	3.541575e+02
					3.598763e+02	3.664754e+02	3.737235e+02	3.686630e+02	2.665940e+02	2.588654e+02	3.529591e+02	3.075807e+02	2.516579e+02
					2.571634e+02	5.434337e+02	5.658879e+02	5.517350e+02	5.325804e+02	5.298436e+02	5.619515e+02	5.378559e+02	3.607285e+02
					3.717431e+02	3.646689e+02	3.871776e+02	3.672992e+02	3.804909e+02	3.652319e+02	3.805424e+02	3.733239e+02	3.779912e+02
					5.864802e+02	5.850928e+02	5.786321e+02	5.855839e+02	5.749147e+02	5.904969e+02	5.644221e+02	5.801091e+02	2.038683e+02
					3.940468e+02	3.620603e+02	2.152812e+02	3.969655e+02	3.391885e+02	3.883485e+02	2.725175e+02	4.123608e+02	4.240258e+02
					4.296959e+02	4.358019e+02	4.243811e+02	4.354380e+02	4.461317e+02	4.354082e+02	4.476819e+02	4.230706e+02	4.167405e+02
					4.239113e+02	4.172465e+02	4.112885e+02	4.102453e+02	4.236368e+02	4.473714e+02	4.592436e+02	4.542436e+02	4.477105e+02
					4.550933e+02	4.544827e+02	4.502967e+02	4.294877e+02	4.232356e+02	4.272137e+02	4.307084e+02	4.362247e+02	4.570410e+02
					4.513439e+02	4.613324e+02	4.605228e+02	4.550776e+02	3.246699e+02	4.304354e+02	4.509612e+02	3.452080e+02	4.537770e+02
					4.636703e+02	4.628575e+02	4.631589e+02	4.622374e+02	4.531706e+02	4.477759e+02	4.609182e+02	4.590341e+02	4.463398e+02
					4.577658e+02	4.491713e+02	4.452693e+02	4.456617e+02	4.256476e+02	4.343358e+02	4.317793e+02	4.272705e+02	4.244674e+02
					4.311117e+02	4.360552e+02	4.115748e+02	3.947964e+02	4.034349e+02	4.143874e+02	3.938735e+02	4.247805e+02	3.484403e+02
					4.416093e+02	4.426308e+02	4.434791e+02	3.634690e+02	3.558357e+02	3.215817e+02	4.151982e+02	4.188036e+02	4.069918e+02
					4.228559e+02	4.206798e+02	2.382327e+02	4.021439e+02	3.927807e+02	4.361571e+02	4.200346e+02	4.158168e+02	3.732875e+02
					4.565942e+02	4.440787e+02	4.552472e+02	4.503874e+02	4.560460e+02	4.434287e+02	4.309100e+02	4.359366e+02	4.247635e+02
					4.277023e+02	4.347464e+02	4.231507e+02	4.312093e+02	4.340081e+02	4.378207e+02	6.156494e+02	5.794764e+02	6.585951e+02
					5.667159e+02	9.996993e+02	3.811257e+02	9.994618e+02	9.997355e+02	9.995638e+02	9.995604e+02	9.994654e+02	1.004226e+03
					1.001918e+03	1.002394e+03	1.002704e+03	1.003856e+03	1.005376e+03	1.005137e+03	1.004552e+03	6.090991e+02	5.873408e+02
					5.414181e+02	6.734870e+02	9.996233e+02	1.003724e+03	1.005600e+03	1.000909e+03	9.998846e+02	7.335406e+02	5.627173e+02
					5.515437e+02	6.677195e+02	6.287246e+02	5.501571e+02	6.291970e+02	6.795529e+02	6.590500e+02	6.998318e+02	5.877343e+02
					5.619175e+02	5.854018e+02	5.857800e+02	5.574695e+02	5.944277e+02	5.969641e+02	5.767747e+02	4.915922e+02	3.403617e+02
					2.907481e+02	3.181795e+02	2.727238e+02	4.350300e+02	4.157799e+02	5.622092e+02	5.845344e+02	5.830903e+02	5.704476e+02
					5.931764e+02	5.704424e+02	5.763106e+02	5.807341e+02	5.765849e+02	5.744886e+02	5.667863e+02	5.743394e+02	5.739607e+02
					5.741562e+02	7.337007e+02	5.480396e+02	5.733623e+02	5.585607e+02	5.808403e+02	5.494424e+02	5.714983e+02	5.652692e+02
					5.464458e+02	5.671691e+02	3.404798e+02	5.140558e+02	3.826669e+02	3.628066e+02	3.436449e+02	5.190555e+02	5.859954e+02
					5.624240e+02	5.914343e+02	5.769088e+02	5.647812e+02	3.444165e+02	3.528263e+02	3.508391e+02	3.443527e+02	3.628843e+02
					3.835609e+02	3.385590e+02	3.449680e+02	5.196483e+02	5.054410e+02	5.484882e+02	5.210672e+02	3.470495e+02	5.324900e+02
					5.064085e+02	5.251067e+02	5.034475e+02	4.970203e+02	5.474391e+02	5.332223e+02	5.572163e+02	5.483651e+02	5.672983e+02
					5.382248e+02	5.323603e+02	5.366001e+02	5.395946e+02	5.470609e+02	5.104722e+02	5.395595e+02	5.525496e+02	5.081745e+02
					3.663195e+02	3.634700e+02	3.830232e+02	5.007384e+02	6.079084e+02	4.513372e+02	4.319409e+02	3.657718e+02	4.379049e+02
					3.387806e+02	3.528497e+02	3.495669e+02	3.426003e+02	3.574246e+02	3.129725e+02	4.486807e+02	2.817950e+02	3.724607e+02
					2.862895e+02	3.446874e+02	2.922847e+02	2.921317e+02	9.991748e+02	9.977345e+02	1.000150e+03	9.970038e+02	9.961864e+02
					9.962950e+02	9.997714e+02	9.993599e+02	9.996090e+02	9.985876e+02	9.943728e+02	9.955390e+02	9.994911e+02	9.995414e+02
					9.992229e+02	9.996962e+02	9.995856e+02	5.810674e+02	5.666719e+02	5.508638e+02	5.938270e+02	5.841739e+02	5.873454e+02
					5.746318e+02	5.700620e+02	5.882241e+02	3.349037e+02	3.446941e+02	3.576854e+02	5.696915e+02	3.273068e+02	5.569013e+02
					2.904305e+02	4.080892e+02	5.781785e+02	5.593077e+02	5.893795e+02	5.948692e+02	6.828396e+02	7.628247e+02	8.029893e+02
					6.461908e+02	7.716257e+02	7.716401e+02	7.142921e+02	6.836262e+02	5.603060e+02	9.994588e+02	4.526479e+02	4.572575e+02
					4.450757e+02	4.429031e+02	4.400570e+02	4.477993e+02	4.406154e+02	4.341476e+02	4.620241e+02	4.387752e+02	4.357000e+02
					4.489228e+02	4.504064e+02	4.422974e+02	4.410749e+02	3.283893e+02	4.473504e+02	4.331752e+02	4.258112e+02	4.377745e+02
					8.845829e+02	8.872182e+02	9.224748e+02	8.610545e+02	7.932431e+02	8.847778e+02	8.210641e+02	7.960482e+02	5.706009e+02
					4.010445e+02	3.667478e+02	4.139629e+02	8.718408e+02	8.511495e+02	8.296681e+02	8.122368e+02	7.742112e+02	7.124418e+02
					7.558442e+02	7.674692e+02	3.357934e+02	3.347685e+02	2.652082e+02	5.668972e+02	5.212818e+02	6.045162e+02	4.870420e+02
					4.576707e+02	6.830449e+02	6.995188e+02	7.867442e+02	5.246406e+02	7.766484e+02	8.554456e+02	9.138544e+02	8.445144e+02
					4.013779e+02	4.092379e+02	3.963964e+02	3.989748e+02	4.034417e+02	8.419837e+02	8.185826e+02	8.387698e+02	1.002887e+03
					1.003089e+03	1.004026e+03	1.003054e+03	1.001915e+03	1.000017e+03	1.000774e+03	1.003004e+03	9.520441e+02	9.522602e+02
					9.658993e+02	9.649834e+02	9.111561e+02	8.949248e+02	9.345669e+02	9.229259e+02	1.001764e+03	9.986964e+02	9.980272e+02
					9.994341e+02	1.005223e+03	9.298848e+02	9.303965e+02	8.953335e+02	1.000135e+03	9.997128e+02	1.000945e+03	8.842055e+02
					8.997368e+02	8.772739e+02	5.408507e+02	4.000991e+02	6.184433e+02	9.609610e+02	9.834425e+02	9.580686e+02	7.145544e+02
					6.599715e+02	6.580760e+02	5.881551e+02	2.655212e+02	2.720492e+02	2.712281e+02	2.895710e+02	2.807678e+02	2.786416e+02
					4.057002e+02	3.681994e+02	3.893277e+02	3.911778e+02	2.695970e+02	2.645681e+02	2.924266e+02	3.023700e+02	2.515832e+02
					9.596593e+02	9.553114e+02	9.419265e+02	9.728372e+02	7.651398e+02	8.254872e+02	7.639142e+02	8.272372e+02	8.014099e+02
					7.569993e+02	5.925332e+02	3.825075e+02	4.492668e+02	6.291000e+02	8.737898e+02	8.458951e+02	8.459998e+02	8.813160e+02
					9.074514e+02	8.836458e+02	5.540402e+02	5.332758e+02	7.339064e+02	7.085862e+02	7.713426e+02	7.160499e+02	8.508360e+02
					9.010514e+02	7.866939e+02	7.964332e+02	7.163697e+02	9.390026e+02	3.181604e+02	5.817352e+02	3.943307e+02	7.786572e+02
					7.952473e+02	3.001286e+02	2.905259e+02	3.241121e+02	2.860358e+02	3.633602e+02	3.971050e+02	3.970219e+02	2.868100e+02
					2.892018e+02	2.451969e+02	2.460106e+02	2.799039e+02	3.027720e+02	2.743462e+02	3.925081e+02	3.720037e+02	4.319334e+02
					4.423933e+02	4.390602e+02	4.549626e+02	4.282448e+02	2.801639e+02	4.333595e+02	2.824933e+02	4.391643e+02	4.413378e+02
					4.514619e+02	3.124235e+02	2.744524e+02	2.805752e+02	2.641985e+02	2.719426e+02	2.737226e+02	3.092588e+02	4.136636e+02
					3.832453e+02	3.615551e+02	3.629516e+02	3.689987e+02	4.230087e+02	4.167420e+02	4.512691e+02	4.187852e+02	4.173744e+02
					3.898973e+02	9.878824e+02	1.002010e+03	9.991935e+02	1.002804e+03	8.491841e+02	7.939074e+02	7.841933e+02	8.394203e+02
					9.996148e+02	1.000774e+03	9.995705e+02	9.672335e+02	9.987481e+02	9.305335e+02	9.485742e+02	9.863352e+02	9.502514e+02
					9.629778e+02	9.392622e+02	9.907470e+02	9.860451e+02	9.935113e+02	1.001195e+03	9.995924e+02	1.001003e+03	1.002571e+03
					6.924404e+02	7.355139e+02	6.295100e+02	7.760588e+02	8.571352e+02	8.791683e+02	9.267910e+02	9.183891e+02	8.737159e+02
					2.963180e+02	3.547081e+02	5.803383e+02	5.646839e+02	9.595608e+02	9.158499e+02	8.557404e+02	8.666957e+02	1.000355e+03
					9.198815e+02	9.569441e+02	8.872792e+02	8.795951e+02	9.624795e+02	9.429204e+02	9.407488e+02	9.748684e+02	9.836965e+02
					9.890545e+02	9.810121e+02	9.782424e+02	9.952694e+02	9.802450e+02	9.867029e+02	1.003461e+03	1.002313e+03	9.999267e+02
					9.836977e+02	9.674000e+02	9.989952e+02	9.989063e+02	9.759011e+02	9.887712e+02	9.823748e+02	9.265843e+02	9.014531e+02
					9.273318e+02	9.474042e+02	8.284787e+02	7.961611e+02	7.535101e+02	7.927368e+02	8.583165e+02	8.949211e+02	8.975836e+02
					8.674561e+02	9.943358e+02	9.798206e+02	9.850323e+02	9.755566e+02	1.001981e+03	1.000689e+03	8.226670e+02	8.449001e+02
					9.385595e+02	9.749158e+02	9.657523e+02	9.999672e+02	1.001203e+03	9.951893e+02	9.855945e+02	9.407652e+02	9.354191e+02
					9.537298e+02	9.501426e+02	9.345313e+02	9.481107e+02	9.065939e+02	9.457703e+02	9.253411e+02	9.444030e+02	1.000965e+03
					1.001930e+03	1.003066e+03	1.002590e+03	9.981910e+02	9.951555e+02	1.000677e+03	1.000543e+03	1.002504e+03	1.004508e+03
					1.004934e+03	9.889789e+02	9.764526e+02	9.968531e+02	9.854948e+02	9.945087e+02	1.001031e+03	1.002066e+03	9.540614e+02
					8.302284e+02	8.125575e+02	9.277639e+02	6.490399e+02	6.034564e+02	7.299105e+02	6.569529e+02	5.591454e+02	3.488503e+02
					7.452526e+02	6.637572e+02	7.032635e+02	7.503026e+02	5.774629e+02	4.170494e+02	5.219416e+02	2.797406e+02	3.334264e+02
					2.832787e+02	4.133698e+02	2.722686e+02	3.762351e+02	3.584644e+02	3.059557e+02	3.018304e+02	4.526004e+02	2.829658e+02
					5.413612e+02	7.056595e+02	7.891968e+02	7.216622e+02	6.970494e+02	8.232895e+02	6.486253e+02	8.365296e+02	7.788262e+02
					9.208253e+02	9.518096e+02	8.430553e+02	9.046940e+02	8.722979e+02	8.816347e+02	8.778454e+02	8.726223e+02	8.598946e+02
					6.690299e+02	8.219560e+02	8.466790e+02	8.095329e+02	8.227412e+02	7.997391e+02	7.313643e+02	9.450174e+02	9.685617e+02
					8.935783e+02	9.355710e+02	8.527684e+02	8.860962e+02	8.646135e+02	8.744431e+02	9.091037e+02	9.941400e+02	9.993171e+02
					9.965952e+02	9.977035e+02	1.001176e+03	9.961128e+02	1.001342e+03	9.915622e+02	1.001977e+03	1.000471e+03	9.991233e+02
					1.000254e+03	1.001963e+03	1.001185e+03	1.001300e+03	1.000411e+03	1.003796e+03	1.001552e+03	1.000478e+03	1.003153e+03
					1.005166e+03	1.004525e+03	1.003928e+03	1.003355e+03	1.002803e+03	1.003118e+03	1.003390e+03	9.680555e+02	9.952559e+02
					1.003069e+03	1.003110e+03	1.003322e+03	1.003416e+03	1.003032e+03	1.002229e+03	1.003066e+03	1.003541e+03	9.471595e+02
					9.113065e+02	9.151448e+02	9.220303e+02	9.399854e+02	9.493376e+02	9.163220e+02	9.464938e+02	9.699892e+02	9.402426e+02
					9.096144e+02	9.484122e+02	9.354457e+02	9.751713e+02	9.605490e+02	9.268534e+02	9.712204e+02	9.983401e+02	9.581644e+02
					9.666073e+02	1.002399e+03	1.000501e+03	1.001803e+03	1.000876e+03	1.000802e+03	1.000153e+03	9.884460e+02	9.180352e+02
					9.071670e+02	9.242120e+02	9.296897e+02	9.144518e+02	8.345126e+02	8.828609e+02	8.638924e+02	8.337164e+02	8.697692e+02
					8.278124e+02	9.562264e+02	9.261125e+02	9.492872e+02	9.242778e+02	9.466973e+02	9.089787e+02	9.551158e+02	9.392901e+02
					9.402338e+02	9.376195e+02	9.232216e+02	8.885106e+02	8.766835e+02	9.015073e+02	8.525080e+02	9.027917e+02	9.044724e+02
					9.391408e+02	9.229153e+02	9.261611e+02	9.120429e+02	9.223498e+02	7.908935e+02	8.432493e+02	8.173940e+02	7.963664e+02
					6.883708e+02	7.735383e+02	7.460119e+02	8.311485e+02	8.960043e+02	8.476282e+02	8.996241e+02	8.701971e+02	8.554509e+02
					9.085051e+02	9.668545e+02	9.508333e+02	9.691859e+02	9.371867e+02	9.863837e+02	1.002838e+03	1.003239e+03	1.003177e+03
					1.002848e+03	1.003644e+03	1.000670e+03	9.989492e+02	1.002641e+03	1.000982e+03	9.997843e+02	1.000745e+03	9.930386e+02
					9.088586e+02	9.730903e+02	8.422464e+02	8.933507e+02	8.521385e+02	8.652348e+02	8.137843e+02	7.720841e+02	7.175588e+02
					7.449292e+02	7.799863e+02	8.271620e+02	7.543072e+02	8.468469e+02	9.773332e+02	9.617011e+02	9.489767e+02	9.024709e+02
					9.211272e+02	9.843666e+02	9.688825e+02	8.990041e+02	8.761775e+02	8.397965e+02	9.650197e+02	9.182614e+02	9.491667e+02
					9.607556e+02	9.266192e+02	9.397797e+02	9.877952e+02	9.962808e+02	9.989317e+02	9.961680e+02	9.890049e+02	9.925158e+02
					9.971533e+02	9.963830e+02	9.917882e+02	9.662509e+02	9.495133e+02	9.363681e+02	9.587548e+02	9.706002e+02	9.410792e+02
					9.589230e+02	1.000816e+03	1.002684e+03	1.001765e+03	9.748179e+02	9.515064e+02	9.375521e+02	1.001039e+03	1.002868e+03
					9.931368e+02	9.557490e+02	9.993107e+02	9.980294e+02	9.791234e+02	1.003028e+03	1.003381e+03	1.002772e+03	1.000197e+03
					1.001295e+03	1.003319e+03	1.003274e+03	1.002512e+03	9.775470e+02	9.886695e+02	9.788904e+02	9.830312e+02	9.923775e+02
					9.331993e+02	9.823956e+02	9.917833e+02	9.860937e+02	9.658116e+02	9.894227e+02	9.931851e+02	9.433861e+02	9.514520e+02
					8.991488e+02	9.699215e+02	9.820471e+02	9.777109e+02	9.173700e+02	9.479954e+02	8.587679e+02	9.516224e+02	9.932471e+02