<?xml version="1.0"?>

<!--
CSMP_Simulation
-->

<VTKFile type="UnstructuredGrid" version="1.0" byte_order="LittleEndian">
	<UnstructuredGrid>
		<Piece NumberOfPoints="2922" NumberOfCells="5619">
			<Points>
				<DataArray type="Float64" Name="Position" NumberOfComponents="3" format="ascii">
					1.062348e+04	-6.219427e+03	0.000000e+00	1.328123e+04	-3.388001e+03	0.000000e+00	6.533000e+03	-2.871000e+03	0.000000e+00	8.993999e+03	3.450022e+02	0.000000e+00
					6.434000e+03	-6.251000e+03	0.000000e+00	6.415000e+03	-1.312000e+03	0.000000e+00	8.891000e+03	-1.610000e+02	0.000000e+00	1.593372e+04	-6.223812e+03	0.000000e+00
					1.243124e+04	-5.182061e+03	0.000000e+00	1.180818e+04	-6.661451e+03	0.000000e+00	1.199040e+04	-6.569837e+03	0.000000e+00	1.186573e+04	-6.450233e+03	0.000000e+00
					1.224666e+04	-6.222517e+03	0.000000e+00	1.208180e+04	-6.360720e+03	0.000000e+00	1.135568e+04	-6.216921e+03	0.000000e+00	1.177466e+04	-5.800292e+03	0.000000e+00
					1.484109e+03	2.369937e+02	0.000000e+00	1.048845e+04	-4.576829e+03	0.000000e+00	5.088007e+03	2.164612e+02	0.000000e+00	1.616065e+04	6.885872e+02	0.000000e+00
					5.856588e+03	2.844799e+02	0.000000e+00	5.964146e+03	2.322470e+02	0.000000e+00	1.285384e+04	-8.473227e+03	0.000000e+00	6.554646e+03	2.976259e+02	0.000000e+00
					6.220259e+03	3.810972e+02	0.000000e+00	2.455667e+03	2.604214e+02	0.000000e+00	1.185441e+04	-8.594387e+03	0.000000e+00	8.953729e+02	2.424411e+02	0.000000e+00
					1.642061e+04	5.389531e+02	0.000000e+00	9.022812e+03	5.486281e+02	0.000000e+00	1.072547e+04	-4.265213e+03	0.000000e+00	1.596156e+04	-4.568462e+03	0.000000e+00
					1.049681e+04	-6.339904e+03	0.000000e+00	1.229884e+04	9.679014e+02	0.000000e+00	1.346081e+04	9.303555e+02	0.000000e+00	7.674576e+03	2.576962e+02	0.000000e+00
					8.121128e+03	2.577928e+02	0.000000e+00	8.390419e+03	2.530714e+02	0.000000e+00	1.759058e+04	3.107264e+02	0.000000e+00	1.283469e+04	-3.190105e+03	0.000000e+00
					1.310544e+04	-3.163050e+03	0.000000e+00	6.218396e+03	2.847346e+02	0.000000e+00	1.964998e+04	3.306567e+02	0.000000e+00	1.089832e+04	6.517557e+02	0.000000e+00
					9.482042e+03	5.002750e+02	0.000000e+00	1.461891e+04	-3.601876e+03	0.000000e+00	1.694475e+04	2.822433e+02	0.000000e+00	1.223129e+04	-8.439639e+03	0.000000e+00
					7.092101e+03	3.133630e+02	0.000000e+00	7.447673e+03	2.954910e+02	0.000000e+00	5.479449e+03	3.927924e+02	0.000000e+00	1.430834e+04	-8.440884e+03	0.000000e+00
					1.346187e+04	-3.101654e+03	0.000000e+00	1.466219e+04	5.912805e+02	0.000000e+00	1.431424e+04	6.995984e+02	0.000000e+00	1.198158e+04	-3.600157e+03	0.000000e+00
					1.519729e+04	6.008027e+02	0.000000e+00	1.732254e+04	2.914492e+02	0.000000e+00	1.847268e+04	5.552377e+02	0.000000e+00	1.373014e+04	-3.092539e+03	0.000000e+00
					1.598609e+04	-4.803680e+03	0.000000e+00	1.811668e+03	2.957238e+02	0.000000e+00	2.068111e+03	3.301681e+02	0.000000e+00	3.593477e+02	6.241832e-01	0.000000e+00
					1.315684e+04	9.290093e+02	0.000000e+00	9.757773e+03	6.136685e+02	0.000000e+00	1.013994e+04	6.394650e+02	0.000000e+00	9.949611e+03	7.276424e+02	0.000000e+00
					1.479179e+04	-3.977888e+03	0.000000e+00	1.474764e+04	-3.691732e+03	0.000000e+00	1.224233e+04	-3.775151e+03	0.000000e+00	1.235721e+04	-3.992361e+03	0.000000e+00
					1.239488e+04	-3.732875e+03	0.000000e+00	1.247959e+04	-3.889221e+03	0.000000e+00	1.489970e+04	-6.402044e+03	0.000000e+00	1.471371e+04	-6.063480e+03	0.000000e+00
					1.503558e+04	-6.243497e+03	0.000000e+00	1.463383e+04	-6.231790e+03	0.000000e+00	1.359516e+04	-6.370837e+03	0.000000e+00	1.336635e+04	-6.229341e+03	0.000000e+00
					1.486979e+04	-7.470250e+03	0.000000e+00	1.455711e+04	-7.489929e+03	0.000000e+00	1.120299e+04	-4.942350e+03	0.000000e+00	1.218357e+04	-7.531530e+03	0.000000e+00
					1.251446e+04	-7.480192e+03	0.000000e+00	1.240108e+04	-7.647510e+03	0.000000e+00	1.239322e+04	-7.293615e+03	0.000000e+00	1.368325e+04	-7.242141e+03	0.000000e+00
					1.217897e+04	-5.028812e+03	0.000000e+00	1.378964e+04	8.854108e+02	0.000000e+00	1.351945e+04	-3.856343e+03	0.000000e+00	1.333151e+04	-3.674419e+03	0.000000e+00
					1.350782e+04	-3.520236e+03	0.000000e+00	1.479244e+04	-4.909493e+03	0.000000e+00	1.380050e+04	-4.989557e+03	0.000000e+00	3.084262e+03	3.746820e+02	0.000000e+00
					3.006144e+03	2.572346e+02	0.000000e+00	1.252005e+03	2.691829e+02	0.000000e+00	1.642126e+03	2.829086e+02	0.000000e+00	8.235090e+03	4.169793e+02	0.000000e+00
					1.537108e+04	-5.728762e+03	0.000000e+00	1.550100e+04	-5.598568e+03	0.000000e+00	1.543359e+04	-5.440257e+03	0.000000e+00	1.516251e+04	-4.367050e+03	0.000000e+00
					1.542543e+04	-4.626431e+03	0.000000e+00	1.547978e+04	-4.435709e+03	0.000000e+00	1.421355e+04	-5.774419e+03	0.000000e+00	1.398427e+04	-5.607986e+03	0.000000e+00
					1.433859e+04	-5.644592e+03	0.000000e+00	1.422646e+04	-5.431404e+03	0.000000e+00	1.278519e+04	-5.034132e+03	0.000000e+00	1.297347e+04	-4.888217e+03	0.000000e+00
					1.308886e+04	-5.058455e+03	0.000000e+00	1.295570e+04	-5.179625e+03	0.000000e+00	1.371210e+04	-5.548806e+03	0.000000e+00	1.306586e+04	-5.417419e+03	0.000000e+00
					1.398961e+04	-5.001093e+03	0.000000e+00	1.423737e+04	-5.238687e+03	0.000000e+00	1.553662e+04	-5.035070e+03	0.000000e+00	1.541510e+04	-5.176839e+03	0.000000e+00
					1.433199e+04	-4.490070e+03	0.000000e+00	1.772795e+04	4.701005e+02	0.000000e+00	1.301714e+04	-3.340203e+03	0.000000e+00	1.291928e+04	-6.673458e+03	0.000000e+00
					1.305404e+04	-6.847013e+03	0.000000e+00	1.275393e+04	-6.763001e+03	0.000000e+00	1.299225e+04	-6.992535e+03	0.000000e+00	1.111766e+04	-6.671729e+03	0.000000e+00
					1.100675e+04	-6.816450e+03	0.000000e+00	1.117046e+04	-6.969377e+03	0.000000e+00	1.205000e+04	-8.078535e+03	0.000000e+00	1.184148e+04	-7.859306e+03	0.000000e+00
					1.196430e+04	-8.231484e+03	0.000000e+00	1.298170e+04	-7.885249e+03	0.000000e+00	1.295062e+04	-8.221395e+03	0.000000e+00	1.309178e+04	-8.017537e+03	0.000000e+00
					1.120470e+04	-5.453850e+03	0.000000e+00	1.115255e+04	-5.738876e+03	0.000000e+00	1.126426e+04	-5.604117e+03	0.000000e+00	1.184009e+04	-5.022972e+03	0.000000e+00
					1.172669e+04	-4.862486e+03	0.000000e+00	1.153323e+04	-4.959783e+03	0.000000e+00	1.175756e+04	-5.171477e+03	0.000000e+00	1.534244e+04	-6.934844e+03	0.000000e+00
					1.455437e+04	-8.098472e+03	0.000000e+00	1.476956e+04	-7.877258e+03	0.000000e+00	1.464624e+04	-8.340289e+03	0.000000e+00	1.404268e+04	-7.444684e+03	0.000000e+00
					1.421918e+04	-7.630822e+03	0.000000e+00	1.428388e+04	-7.472196e+03	0.000000e+00	1.526650e+04	-7.239097e+03	0.000000e+00	1.513630e+04	-7.368500e+03	0.000000e+00
					1.581589e+04	-5.652546e+03	0.000000e+00	1.296440e+04	-6.343040e+03	0.000000e+00	1.295470e+04	-6.059130e+03	0.000000e+00	1.303797e+04	-6.200013e+03	0.000000e+00
					1.273442e+04	-6.210589e+03	0.000000e+00	1.360396e+04	-6.962240e+03	0.000000e+00	1.362392e+04	-6.655270e+03	0.000000e+00	1.339020e+04	-6.812359e+03	0.000000e+00
					6.442692e+03	4.405175e+02	0.000000e+00	3.840145e+03	2.404374e+02	0.000000e+00	3.475756e+03	2.459832e+02	0.000000e+00	3.582548e+03	3.131050e+02	0.000000e+00
					1.179383e+04	-4.550717e+03	0.000000e+00	1.173986e+04	-5.484162e+03	0.000000e+00	1.062189e+04	-5.748233e+03	0.000000e+00	1.180024e+04	-3.998124e+03	0.000000e+00
					1.173389e+04	-3.844468e+03	0.000000e+00	1.197836e+04	-3.861204e+03	0.000000e+00	1.188099e+04	-3.736811e+03	0.000000e+00	1.137465e+04	-4.416604e+03	0.000000e+00
					1.124799e+04	-4.291994e+03	0.000000e+00	1.108948e+04	-4.439061e+03	0.000000e+00	1.120866e+04	-4.578218e+03	0.000000e+00	1.076080e+04	-6.185724e+03	0.000000e+00
					1.052158e+04	-6.171076e+03	0.000000e+00	1.061654e+04	-6.082875e+03	0.000000e+00	1.068627e+04	-6.344822e+03	0.000000e+00	1.547934e+04	-6.007495e+03	0.000000e+00
					1.239362e+04	-8.015408e+03	0.000000e+00	1.231714e+04	-8.236339e+03	0.000000e+00	1.259828e+04	-8.069267e+03	0.000000e+00	1.701531e+04	4.509240e+02	0.000000e+00
					1.277290e+04	-3.855596e+03	0.000000e+00	1.248342e+04	-4.291681e+03	0.000000e+00	1.951687e+04	4.566190e+02	0.000000e+00	1.409639e+04	-3.762137e+03	0.000000e+00
					1.395297e+04	-3.853813e+03	0.000000e+00	1.426096e+04	-3.882789e+03	0.000000e+00	1.412655e+04	-4.015160e+03	0.000000e+00	1.454529e+04	-4.454906e+03	0.000000e+00
					1.477335e+04	-4.577894e+03	0.000000e+00	1.473337e+04	-4.284850e+03	0.000000e+00	1.486818e+04	-4.392328e+03	0.000000e+00	1.182077e+04	-6.079763e+03	0.000000e+00
					1.161805e+04	-6.234353e+03	0.000000e+00	1.190807e+04	-6.249025e+03	0.000000e+00	1.174207e+04	-6.340720e+03	0.000000e+00	1.216930e+04	-5.632604e+03	0.000000e+00
					1.242431e+04	-5.486649e+03	0.000000e+00	1.241345e+04	-5.774949e+03	0.000000e+00	1.249642e+04	-5.631837e+03	0.000000e+00	1.225177e+04	-5.774741e+03	0.000000e+00
					1.257980e+04	-5.777980e+03	0.000000e+00	1.225809e+04	-5.482228e+03	0.000000e+00	1.256570e+04	-5.502870e+03	0.000000e+00	1.238428e+04	-6.062964e+03	0.000000e+00
					1.282796e+04	-5.599574e+03	0.000000e+00	1.196367e+04	-6.067125e+03	0.000000e+00	1.167268e+04	-6.097839e+03	0.000000e+00	1.277630e+04	-6.604007e+03	0.000000e+00
					1.500551e+04	-7.272801e+03	0.000000e+00	1.436310e+04	-7.629506e+03	0.000000e+00	1.405447e+04	-7.614436e+03	0.000000e+00	1.378616e+04	-7.311337e+03	0.000000e+00
					1.449798e+04	-7.361653e+03	0.000000e+00	1.450249e+04	-7.635568e+03	0.000000e+00	1.431253e+04	-7.811639e+03	0.000000e+00	1.414808e+04	-7.968868e+03	0.000000e+00
					1.487244e+04	-7.758708e+03	0.000000e+00	1.460617e+04	-7.765267e+03	0.000000e+00	1.424603e+04	-8.234521e+03	0.000000e+00	1.448709e+04	-7.900806e+03	0.000000e+00
					1.464000e+04	-7.940785e+03	0.000000e+00	1.490539e+04	-7.933881e+03	0.000000e+00	1.510985e+04	-7.219671e+03	0.000000e+00	1.487015e+04	-7.309580e+03	0.000000e+00
					1.490000e+04	-6.991785e+03	0.000000e+00	1.434632e+04	-7.340104e+03	0.000000e+00	1.461365e+04	-7.391157e+03	0.000000e+00	1.466017e+04	-7.113627e+03	0.000000e+00
					1.516388e+04	-7.108649e+03	0.000000e+00	1.519896e+04	-6.954921e+03	0.000000e+00	1.522463e+04	-6.802707e+03	0.000000e+00	1.504350e+04	-6.973318e+03	0.000000e+00
[...]
			<PointData Scalars="bulk fluid density">
				<DataArray type="Float64" Name="bulk fluid density" NumberOfComponents="1" format="ascii">
					2.248723e+02	6.744954e+02	9.656642e+02	9.853414e+02	6.519574e+02	9.895890e+02	8.996165e+02	2.616607e+02
					5.719583e+02	4.086253e+02	4.055920e+02	3.973020e+02	3.901034e+02	3.954290e+02	3.864959e+02	5.658945e+02	1.000003e+03
					5.742635e+02	9.878146e+02	9.993936e+02	9.666727e+02	9.632105e+02	3.287109e+02	9.758968e+02	9.919302e+02	9.998894e+02
					2.843572e+02	9.996274e+02	9.995829e+02	9.961844e+02	6.172327e+02	6.569311e+02	1.892103e+02	9.998774e+02	9.998152e+02
					9.929371e+02	9.903597e+02	9.946520e+02	1.000533e+03	6.804014e+02	7.117552e+02	9.797250e+02	1.000203e+03	9.994015e+02
					9.977021e+02	7.333324e+02	9.997683e+02	4.085401e+02	9.959424e+02	9.944737e+02	9.699759e+02	4.065519e+02	7.503478e+02
					9.998253e+02	9.998985e+02	5.310529e+02	9.993121e+02	1.000370e+03	9.999277e+02	7.711908e+02	5.866225e+02	9.999455e+02
					9.998668e+02	9.973957e+02	1.000069e+03	9.994995e+02	9.998756e+02	9.995976e+02	6.448530e+02	7.238802e+02	6.570027e+02
					7.510250e+02	6.707361e+02	7.286121e+02	3.952083e+02	3.827293e+02	3.887116e+02	3.884357e+02	3.974460e+02	3.908603e+02
					4.418858e+02	4.431200e+02	3.225784e+02	4.443360e+02	4.428092e+02	4.490528e+02	4.355004e+02	4.337803e+02	5.904526e+02
					9.996971e+02	6.829196e+02	6.308691e+02	6.558429e+02	5.508220e+02	5.837067e+02	9.993465e+02	9.997831e+02	9.997641e+02
					9.998868e+02	9.956948e+02	3.291835e+02	2.924706e+02	2.984558e+02	5.712206e+02	5.148196e+02	6.031490e+02	5.434745e+02
					5.422163e+02	5.613057e+02	5.705376e+02	5.721268e+02	5.796758e+02	5.668483e+02	5.575498e+02	5.340531e+02	5.345362e+02
					5.890624e+02	5.849103e+02	4.862052e+02	3.639436e+02	4.633708e+02	9.998402e+02	6.667553e+02	4.103196e+02	4.181527e+02
					4.140391e+02	4.240889e+02	4.041512e+02	3.985538e+02	4.135546e+02	4.393664e+02	4.372909e+02	3.359720e+02	4.578068e+02
					4.574623e+02	4.617755e+02	2.896000e+02	3.483860e+02	3.367329e+02	5.994788e+02	5.753363e+02	5.622860e+02	5.992302e+02
					4.148516e+02	4.443425e+02	4.399422e+02	3.211990e+02	4.416808e+02	4.486789e+02	4.425600e+02	4.234754e+02	4.340981e+02
					3.372217e+02	3.960650e+02	3.819759e+02	3.893418e+02	3.897836e+02	4.230920e+02	4.097189e+02	4.165725e+02	9.946855e+02
					1.000011e+03	9.997460e+02	9.995237e+02	4.890398e+02	5.880122e+02	2.635632e+02	5.027996e+02	5.146543e+02	4.697628e+02
					5.151083e+02	6.368232e+02	4.682301e+02	4.495225e+02	5.958970e+02	3.298141e+02	2.111438e+02	2.335488e+02	2.277169e+02
					3.706671e+02	4.589442e+02	4.417347e+02	4.608927e+02	9.994980e+02	7.374467e+02	4.912735e+02	9.996810e+02	6.336309e+02
					6.028797e+02	6.135649e+02	6.000386e+02	5.457695e+02	5.680447e+02	5.617083e+02	5.777090e+02	5.453783e+02	3.872224e+02
					3.894795e+02	3.915129e+02	5.515565e+02	5.485765e+02	5.282785e+02	5.342029e+02	5.369329e+02	5.207917e+02	5.575237e+02
					5.406944e+02	3.823114e+02	5.223164e+02	5.386062e+02	3.900109e+02	4.074899e+02	4.343275e+02	4.484367e+02	4.480793e+02
					4.364834e+02	4.382766e+02	4.481650e+02	4.547983e+02	4.587018e+02	4.430467e+02	4.505252e+02	4.420365e+02	4.553622e+02
					4.482664e+02	3.737920e+02	4.314552e+02	4.361837e+02	4.242044e+02	4.373809e+02	4.394334e+02	4.287320e+02	4.257903e+02
					4.190060e+02	4.129345e+02	4.213485e+02	3.942914e+02	3.960294e+02	3.961136e+02	4.019260e+02	4.082959e+02	9.994623e+02
					9.998692e+02	9.995033e+02	9.996239e+02	9.998253e+02	9.995316e+02	9.996573e+02	1.000036e+03	9.983452e+02	9.946367e+02
					5.676924e+02	6.198614e+02	5.468760e+02	5.198388e+02	4.809727e+02	5.289652e+02	7.507944e+02	6.327539e+02	6.466486e+02
					7.050554e+02	6.773632e+02	7.122376e+02	6.774253e+02	5.810779e+02	6.340222e+02	5.726584e+02	6.753882e+02	7.431740e+02
					5.766951e+02	6.194397e+02	6.350639e+02	6.505060e+02	6.749847e+02	5.803550e+02	6.104714e+02	6.854199e+02	6.809766e+02
					6.408851e+02	5.631660e+02	5.879257e+02	6.100552e+02	6.360359e+02	5.602258e+02	5.571932e+02	9.995881e+02	9.997523e+02
					9.998007e+02	5.874221e+02	5.925721e+02	5.895069e+02	5.567577e+02	7.537836e+02	5.933811e+02	7.600561e+02	6.702390e+02
					6.045672e+02	5.846786e+02	6.212201e+02	6.852381e+02	6.328443e+02	3.393917e+02	3.326266e+02	4.526374e+02	4.394370e+02
					4.515283e+02	4.536359e+02	4.581955e+02	3.724909e+02	3.104131e+02	4.146371e+02	4.078329e+02	5.820063e+02	3.704038e+02
					3.792006e+02	3.648011e+02	3.950154e+02	4.018986e+02	3.939366e+02	3.769740e+02	5.375559e+02	5.626350e+02	5.636727e+02
					5.351390e+02	3.981592e+02	4.054049e+02	3.949615e+02	1.807144e+02	2.190659e+02	3.308685e+02	4.628660e+02	3.725625e+02
					3.795130e+02	3.888514e+02	3.591698e+02	3.590585e+02	3.139036e+02	2.922641e+02	4.816548e+02	2.766149e+02	3.607858e+02
					3.721378e+02	3.603208e+02	4.630372e+02	6.179277e+02	6.476476e+02	5.698630e+02	4.870332e+02	4.806766e+02	5.644842e+02
					5.215213e+02	7.103704e+02	4.892549e+02	5.585662e+02	6.256484e+02	5.345359e+02	4.875964e+02	5.046501e+02	3.752791e+02
					2.388446e+02	2.750245e+02	2.791908e+02	2.983803e+02	5.640507e+02	6.654339e+02	5.052016e+02	5.122606e+02	6.927395e+02
					5.464480e+02	5.997337e+02	6.613042e+02	7.469154e+02	9.997395e+02	9.996541e+02	9.998436e+02	9.998538e+02	9.992970e+02
					9.649713e+02	9.899438e+02	9.849147e+02	9.774447e+02	9.846472e+02	4.557438e+02	4.219462e+02	3.825394e+02	3.792740e+02
					5.235745e+02	3.703337e+02	3.855239e+02	5.223804e+02	5.259119e+02	3.976581e+02	3.972253e+02	4.032241e+02	4.048508e+02
					4.084463e+02	3.818557e+02	3.823105e+02	3.638016e+02	3.648973e+02	3.722707e+02	3.638879e+02	3.948929e+02	3.979169e+02
					4.101989e+02	4.107366e+02	3.981807e+02	4.028744e+02	4.044777e+02	4.107098e+02	2.324348e+02	1.991331e+02	2.083637e+02
					2.396333e+02	3.811155e+02	2.976871e+02	3.683059e+02	2.827000e+02	3.042327e+02	3.969785e+02	3.265095e+02	3.987538e+02
					4.624239e+02	3.101240e+02	3.001106e+02	2.810943e+02	2.994003e+02	3.452364e+02	3.044931e+02	2.352593e+02	4.258064e+02
					4.429873e+02	4.163301e+02	4.076483e+02	4.068845e+02	3.110428e+02	3.490783e+02	2.382858e+02	4.008943e+02	3.936355e+02
					4.303080e+02	4.457042e+02	3.823736e+02	3.300817e+02	3.316724e+02	3.120499e+02	3.911573e+02	3.978637e+02	3.898542e+02
					5.557936e+02	5.444168e+02	3.946151e+02	3.916328e+02	3.969932e+02	3.796200e+02	3.863065e+02	3.690097e+02	4.103740e+02
					4.263860e+02	6.838193e+02	7.373906e+02	6.439174e+02	9.998035e+02	4.043110e+02	3.893035e+02	4.006043e+02	4.042359e+02
					3.912600e+02	3.774022e+02	3.893417e+02	4.071814e+02	2.579198e+02	4.288764e+02	4.364771e+02	4.241596e+02	4.272987e+02
					4.222562e+02	4.170069e+02	4.201046e+02	4.135801e+02	3.982263e+02	4.104932e+02	4.065057e+02	4.157986e+02	4.219486e+02
					4.274339e+02	4.134309e+02	4.363895e+02	4.332551e+02	4.251092e+02	5.631913e+02	5.643433e+02	5.551942e+02	5.403027e+02
					5.511729e+02	3.827985e+02	3.850543e+02	3.730655e+02	3.757909e+02	3.666772e+02	3.587976e+02	2.837215e+02	2.865210e+02
					3.034668e+02	6.759046e+02	5.766102e+02	6.207467e+02	5.229791e+02	7.434481e+02	6.836002e+02	5.710963e+02	5.247925e+02
					6.002164e+02	3.078006e+02	5.944846e+02	6.031181e+02	3.469947e+02	5.987635e+02	3.116952e+02	5.525369e+02	5.852333e+02
					3.596958e+02	3.604942e+02	3.737514e+02	3.695526e+02	2.718261e+02	2.751984e+02	3.218655e+02	2.671792e+02	2.745772e+02
					2.717241e+02	5.777045e+02	5.933873e+02	5.861727e+02	5.730653e+02	5.673969e+02	5.905581e+02	5.787545e+02	5.600646e+02
					5.318402e+02	5.448610e+02	3.875214e+02	5.496992e+02	3.838349e+02	5.704859e+02	3.818192e+02	3.852168e+02	3.786684e+02
					5.360299e+02	5.950459e+02	5.921697e+02	5.427096e+02	5.973604e+02	5.573313e+02	5.940764e+02	5.728118e+02	2.121925e+02
					3.917419e+02	3.581185e+02	2.257719e+02	3.966280e+02	3.342831e+02	3.878577e+02	2.741114e+02	4.123086e+02	4.241517e+02
					4.297067e+02	4.357474e+02	4.244560e+02	4.353953e+02	4.459987e+02	4.354088e+02	4.476800e+02	4.230216e+02	4.166632e+02
					4.240118e+02	4.172457e+02	4.112057e+02	4.101698e+02	4.236701e+02	4.473688e+02	4.590685e+02	4.542298e+02	4.473051e+02
					4.548812e+02	4.535272e+02	4.494409e+02	4.294581e+02	4.232789e+02	4.272459e+02	4.305244e+02	4.362282e+02	4.553573e+02
					4.496822e+02	4.609131e+02	4.599709e+02	4.531540e+02	3.275889e+02	4.279751e+02	4.487029e+02	3.469869e+02	4.518143e+02
					4.625430e+02	4.623219e+02	4.620023e+02	4.610544e+02	4.531655e+02	4.477741e+02	4.606796e+02	4.589334e+02	4.463408e+02
					4.577094e+02	4.491679e+02	4.449104e+02	4.440160e+02	4.257318e+02	4.339884e+02	4.316892e+02	4.247603e+02	4.229901e+02
					4.305901e+02	4.359040e+02	4.079914e+02	3.942555e+02	3.992883e+02	4.110982e+02	3.948648e+02	4.232188e+02	3.488951e+02
					4.406962e+02	4.417013e+02	4.430616e+02	3.657628e+02	3.631814e+02	3.236906e+02	4.134853e+02	4.167492e+02	4.078141e+02
					4.188081e+02	4.170785e+02	2.467864e+02	4.015274e+02	3.931692e+02	4.361576e+02	4.201558e+02	4.156534e+02	3.715751e+02
					4.565158e+02	4.440824e+02	4.551669e+02	4.503773e+02	4.559594e+02	4.434348e+02	4.309274e+02	4.359372e+02	4.248226e+02
					4.277353e+02	4.347477e+02	4.232392e+02	4.312262e+02	4.340116e+02	5.108646e+02	6.710920e+02	6.388653e+02	6.566140e+02
					6.373458e+02	9.997005e+02	5.214329e+02	9.994628e+02	9.997366e+02	9.995643e+02	9.995608e+02	9.994657e+02	1.004235e+03
					1.001919e+03	1.002396e+03	1.002706e+03	1.003862e+03	1.005459e+03	1.005166e+03	1.004573e+03	6.757211e+02	6.480389e+02
					6.811934e+02	6.253392e+02	9.996234e+02	1.003732e+03	1.005677e+03	1.000910e+03	9.998848e+02	7.265148e+02	5.378138e+02
					6.087246e+02	6.452533e+02	6.880358e+02	6.424673e+02	6.870806e+02	7.244456e+02	7.055580e+02	7.414772e+02	5.521238e+02
					5.438562e+02	4.816327e+02	4.500798e+02	5.630272e+02	5.326352e+02	6.569262e+02	6.342706e+02	5.614976e+02	4.262828e+02
					3.058840e+02	5.867562e+02	4.108244e+02	4.982892e+02	5.989386e+02	5.965298e+02	5.985471e+02	5.886470e+02	6.005532e+02
					5.390975e+02	5.022906e+02	5.706533e+02	4.869512e+02	5.529919e+02	4.983976e+02	5.916298e+02	5.134848e+02	5.686369e+02
					5.241259e+02	7.458742e+02	6.317384e+02	4.911475e+02	5.896952e+02	5.552852e+02	5.873521e+02	5.831348e+02	5.911510e+02
					5.850997e+02	5.915772e+02	5.387494e+02	5.645670e+02	3.824617e+02	3.646992e+02	5.349088e+02	5.671527e+02	5.442896e+02
					5.943691e+02	5.327841e+02	5.870003e+02	5.962285e+02	5.320905e+02	5.196766e+02	5.216395e+02	5.351761e+02	5.149866e+02
					3.833682e+02	5.459669e+02	5.401874e+02	5.685998e+02	5.560311e+02	5.878107e+02	5.691659e+02	5.464507e+02	5.773401e+02
					5.520969e+02	5.707313e+02	5.564348e+02	5.498057e+02	5.864823e+02	5.781200e+02	5.904725e+02	5.865789e+02	5.888302e+02
					5.811927e+02	5.774097e+02	5.791327e+02	5.814642e+02	5.866431e+02	5.564601e+02	5.805457e+02	5.907911e+02	5.896607e+02
					5.499758e+02	5.348552e+02	3.861588e+02	5.807626e+02	6.694882e+02	5.917624e+02	5.442628e+02	4.603389e+02	4.438115e+02
					2.980361e+02	3.117849e+02	3.661614e+02	3.219766e+02	3.447529e+02	4.692825e+02	4.315859e+02	3.173992e+02	4.465405e+02
					3.197563e+02	4.943284e+02	3.727575e+02	3.574455e+02	9.992052e+02	9.979662e+02	1.000152e+03	9.975668e+02	9.968870e+02
					9.968861e+02	9.997726e+02	9.993600e+02	9.996092e+02	9.986984e+02	9.953473e+02	9.961775e+02	9.994912e+02	9.995420e+02
					9.992673e+02	9.997052e+02	9.996000e+02	5.670997e+02	5.929563e+02	5.884249e+02	5.854175e+02	6.086076e+02	6.006210e+02
					6.041476e+02	6.012984e+02	6.064775e+02	6.094637e+02	6.063733e+02	6.068517e+02	6.015990e+02	5.833558e+02	5.253840e+02
					5.489420e+02	5.990213e+02	5.447833e+02	6.462467e+02	6.382978e+02	6.628650e+02	7.250724e+02	7.109596e+02	7.046799e+02
					6.353792e+02	6.847753e+02	6.921531e+02	7.034417e+02	6.364204e+02	5.503715e+02	9.994588e+02	4.526421e+02	4.571887e+02
					4.450788e+02	4.429104e+02	4.400612e+02	4.477974e+02	4.403267e+02	4.333422e+02	4.607649e+02	4.385184e+02	4.356997e+02
					4.488242e+02	4.503915e+02	4.423046e+02	4.410159e+02	4.438631e+02	4.471537e+02	4.331572e+02	4.259782e+02	4.377195e+02
					8.953748e+02	8.969662e+02	9.297214e+02	8.733026e+02	8.108869e+02	8.960808e+02	8.366860e+02	8.133953e+02	5.947765e+02
					4.225709e+02	3.784609e+02	4.374693e+02	8.838953e+02	8.647778e+02	8.447011e+02	8.281306e+02	7.927490e+02	7.349617e+02
					7.759026e+02	7.858032e+02	3.458618e+02	3.327897e+02	2.649657e+02	6.045559e+02	5.591675e+02	6.362784e+02	5.303699e+02
					5.011838e+02	7.088147e+02	7.235919e+02	8.049441e+02	5.512024e+02	7.957503e+02	8.684454e+02	9.222778e+02	8.574388e+02
					4.012922e+02	4.091828e+02	3.962825e+02	3.988642e+02	4.033488e+02	8.570629e+02	8.366535e+02	8.564838e+02	1.003245e+03
					1.003414e+03	1.004272e+03	1.003376e+03	1.002360e+03	1.000725e+03	1.001263e+03	1.003247e+03	9.533399e+02	9.527488e+02
					9.671014e+02	9.664182e+02	9.202227e+02	9.072975e+02	9.423047e+02	9.329309e+02	1.001773e+03	9.990194e+02	9.986869e+02
					9.995479e+02	1.005463e+03	9.351860e+02	9.352796e+02	9.024119e+02	1.000136e+03	9.997134e+02	1.000947e+03	8.897165e+02
					9.058956e+02	8.847692e+02	7.280772e+02	5.762526e+02	7.472228e+02	9.658188e+02	9.858805e+02	9.640189e+02	7.357458e+02
					6.834587e+02	6.836195e+02	6.153503e+02	2.652242e+02	2.725666e+02	2.715862e+02	2.890789e+02	2.825748e+02	2.807389e+02
					4.017281e+02	3.786800e+02	3.900082e+02	3.899028e+02	2.698463e+02	2.648918e+02	2.915122e+02	3.109436e+02	2.766680e+02
					9.650739e+02	9.608484e+02	9.488592e+02	9.769138e+02	7.753039e+02	8.341969e+02	7.745345e+02	8.349527e+02	8.091873e+02
					7.655172e+02	6.224916e+02	4.396788e+02	4.977294e+02	6.539203e+02	8.817977e+02	8.550408e+02	8.536169e+02	8.803271e+02
					9.088335e+02	8.844431e+02	5.855742e+02	5.700895e+02	7.359421e+02	7.156339e+02	7.848595e+02	7.338226e+02	8.575692e+02
					9.052465e+02	8.042351e+02	8.106718e+02	7.344348e+02	9.444781e+02	3.348747e+02	6.146266e+02	4.155197e+02	7.995762e+02
					8.142530e+02	3.076944e+02	3.003628e+02	3.365285e+02	2.972816e+02	3.701499e+02	4.073767e+02	4.120467e+02	2.841218e+02
					2.869973e+02	2.653775e+02	2.580761e+02	2.801617e+02	3.023121e+02	2.747937e+02	3.923838e+02	3.619441e+02	4.319030e+02
					4.423490e+02	4.390631e+02	4.548751e+02	4.280956e+02	2.821798e+02	4.313491e+02	2.848630e+02	4.385820e+02	4.413439e+02
					4.514540e+02	3.111602e+02	2.742252e+02	2.809277e+02	2.638932e+02	2.715512e+02	2.707512e+02	3.250519e+02	4.335603e+02
					3.969654e+02	3.724730e+02	3.763988e+02	3.806182e+02	4.466838e+02	4.407213e+02	4.834646e+02	4.428542e+02	4.447361e+02
					4.076144e+02	9.915918e+02	1.002295e+03	1.000032e+03	1.002892e+03	8.448365e+02	7.872823e+02	7.760143e+02	8.333864e+02
					9.996153e+02	1.000777e+03	9.995711e+02	9.710612e+02	9.991298e+02	9.381512e+02	9.538188e+02	9.877617e+02	9.558463e+02
					9.661897e+02	9.454854e+02	9.922020e+02	9.881461e+02	9.950589e+02	1.001524e+03	1.000304e+03	1.001144e+03	1.002579e+03
					6.587042e+02	6.663007e+02	6.873481e+02	7.993455e+02	8.688459e+02	8.920081e+02	9.362397e+02	9.288080e+02	8.901706e+02
					6.053975e+02	6.077522e+02	6.060926e+02	5.933863e+02	9.636469e+02	9.240687e+02	8.682940e+02	8.790017e+02	1.000392e+03
					9.280896e+02	9.651460e+02	9.018654e+02	8.921615e+02	9.655985e+02	9.467137e+02	9.437155e+02	9.794450e+02	9.871235e+02
					9.913368e+02	9.842232e+02	9.784212e+02	9.952274e+02	9.803840e+02	9.873740e+02	1.003590e+03	1.002773e+03	1.000856e+03
					9.856071e+02	9.710159e+02	9.993210e+02	9.990900e+02	9.788940e+02	9.907385e+02	9.855280e+02	9.380555e+02	9.154953e+02
					9.382284e+02	9.561279e+02	8.458935e+02	8.144873e+02	7.762204e+02	8.137491e+02	8.689863e+02	9.039091e+02	9.050470e+02
					8.757312e+02	9.962053e+02	9.839961e+02	9.883000e+02	9.803576e+02	1.001983e+03	1.000690e+03	8.432530e+02	8.640931e+02
					9.407129e+02	9.781648e+02	9.692866e+02	9.999755e+02	1.001209e+03	9.954745e+02	9.865333e+02	9.444284e+02	9.406800e+02
					9.568347e+02	9.542845e+02	9.418765e+02	9.554081e+02	9.168000e+02	9.472275e+02	9.282779e+02	9.457043e+02	1.000968e+03
					1.001947e+03	1.003107e+03	1.002599e+03	9.983462e+02	9.956206e+02	1.000973e+03	1.000643e+03	1.002809e+03	1.004800e+03
					1.005117e+03	9.901626e+02	9.782367e+02	9.975240e+02	9.866976e+02	9.954599e+02	1.001647e+03	1.002128e+03	9.605552e+02
					8.414384e+02	8.263490e+02	9.398460e+02	6.696870e+02	6.596946e+02	7.655476e+02	6.771299e+02	5.782520e+02	3.632806e+02
					7.641465e+02	6.888070e+02	7.268400e+02	7.704683e+02	6.043205e+02	4.395944e+02	5.485858e+02	2.885589e+02	3.522726e+02
					2.898061e+02	4.363650e+02	2.850809e+02	4.097614e+02	3.845837e+02	3.337901e+02	3.171571e+02	4.825391e+02	3.057288e+02
					5.559257e+02	7.309786e+02	8.090232e+02	7.507740e+02	7.361718e+02	8.417378e+02	6.946778e+02	8.504311e+02	8.074159e+02
					9.290037e+02	9.636884e+02	8.577673e+02	9.148795e+02	8.834343e+02	9.034249e+02	9.089137e+02	8.854595e+02	8.743217e+02
					7.071353e+02	8.272035e+02	8.616379e+02	8.242659e+02	8.223519e+02	8.136606e+02	7.387488e+02	9.523220e+02	9.736359e+02
					9.075338e+02	9.437464e+02	8.718178e+02	8.988482e+02	8.869052e+02	9.183366e+02	9.232089e+02	9.954364e+02	9.999493e+02
					9.972299e+02	9.983825e+02	1.001686e+03	9.968262e+02	1.001764e+03	9.924622e+02	1.002465e+03	1.000959e+03	9.998046e+02
					1.000979e+03	1.002395e+03	1.001659e+03	1.001885e+03	1.001078e+03	1.004109e+03	1.001886e+03	1.000678e+03	1.003285e+03
					1.005283e+03	1.004703e+03	1.004097e+03	1.003483e+03	1.002840e+03	1.003375e+03	1.003490e+03	9.692553e+02	9.959194e+02
					1.003076e+03	1.003206e+03	1.003338e+03	1.003447e+03	1.003087e+03	1.002240e+03	1.003220e+03	1.003627e+03	9.491263e+02
					9.212479e+02	9.252674e+02	9.318932e+02	9.426471e+02	9.507108e+02	9.241210e+02	9.492047e+02	9.722380e+02	9.458062e+02
					9.175760e+02	9.515547e+02	9.399901e+02	9.774939e+02	9.634397e+02	9.307229e+02	9.730358e+02	9.984407e+02	9.603278e+02
					9.685507e+02	1.002403e+03	1.000501e+03	1.001805e+03	1.000915e+03	1.000802e+03	1.000153e+03	9.891864e+02	9.247271e+02
					9.138933e+02	9.297119e+02	9.341076e+02	9.198601e+02	8.516955e+02	8.949819e+02	8.765557e+02	8.498702e+02	8.841092e+02
					8.427787e+02	9.609379e+02	9.329950e+02	9.542646e+02	9.322309e+02	9.524607e+02	9.177543e+02	9.611650e+02	9.468456e+02
					9.483619e+02	9.446695e+02	9.320861e+02	8.991961e+02	8.921432e+02	9.136216e+02	8.693792e+02	9.139550e+02	9.172048e+02
					9.479649e+02	9.333259e+02	9.371711e+02	9.244469e+02	9.264829e+02	8.136953e+02	8.630730e+02	8.391860e+02	8.194884e+02
					7.171372e+02	7.978971e+02	7.715509e+02	8.517476e+02	9.109593e+02	8.670697e+02	9.141869e+02	8.875403e+02	8.729256e+02
					9.216210e+02	9.711549e+02	9.584671e+02	9.737472e+02	9.466182e+02	9.867989e+02	1.002841e+03	1.003284e+03	1.003186e+03
					1.002852e+03	1.003669e+03	1.000670e+03	9.990385e+02	1.002682e+03	1.000982e+03	9.997845e+02	1.000747e+03	9.933979e+02
					9.128009e+02	9.780556e+02	8.523333e+02	8.998455e+02	8.653337e+02	8.765937e+02	8.288617e+02	7.954268e+02	7.406153e+02
					7.690256e+02	8.003469e+02	8.429593e+02	7.745102e+02	8.652701e+02	9.814847e+02	9.683594e+02	9.571506e+02	9.158139e+02
					9.332402e+02	9.863148e+02	9.737432e+02	9.118996e+02	8.924351e+02	8.578655e+02	9.692826e+02	9.250880e+02	9.547678e+02
					9.647281e+02	9.338311e+02	9.452496e+02	9.907244e+02	9.974596e+02	9.998474e+02	9.977130e+02	9.916872e+02	9.945627e+02
					9.985042e+02	9.976320e+02	9.937416e+02	9.724725e+02	9.580856e+02	9.466712e+02	9.658414e+02	9.761077e+02	9.506442e+02
					9.645442e+02	1.000848e+03	1.002710e+03	1.001777e+03	9.758382e+02	9.584579e+02	9.458198e+02	1.001155e+03	1.002883e+03
					9.933800e+02	9.597264e+02	9.992542e+02	9.978874e+02	9.797059e+02	1.003162e+03	1.003426e+03	1.002795e+03	1.001046e+03
					1.001926e+03	1.003535e+03	1.003468e+03	1.002524e+03	9.800501e+02	9.898126e+02	9.801066e+02	9.835106e+02	9.921131e+02
					9.397103e+02	9.845213e+02	9.921599e+02	9.881295e+02	9.713072e+02	9.912565e+02	9.950586e+02	9.523809e+02	9.531815e+02
					9.039001e+02	9.716199e+02	9.829025e+02	9.796233e+02	9.220872e+02	9.522793e+02	8.653246e+02	9.588947e+02	9.945651e+02